# vtk DataFile Version 3.0
# pde1d
ASCII
DATASET STRUCTURED_GRID
DIMENSIONS 301 46 1
POINTS 13846 double
-0.227182 0.246575 0 -0.222181 0.246575 0 -0.21727 0.246575 0 -0.21245 0.246575 0 -0.207721 0.246575 0 -0.203086 0.246575 0 -0.198544 0.246575 0 -0.194095 0.246575 0 -0.189738 0.246575 0 -0.185472 0.246575 0 -0.181297 0.246575 0 -0.177211 0.246575 0 -0.173213 0.246575 0 -0.1693 0.246575 0 -0.165471 0.246575 0 -0.161723 0.246575 0 -0.158056 0.246575 0 -0.154465 0.246575 0 -0.150949 0.246575 0 -0.147507 0.246575 0 -0.144134 0.246575 0 -0.14083 0.246575 0 -0.137592 0.246575 0 -0.134418 0.246575 0 -0.131306 0.246575 0 -0.128252 0.246575 0 -0.125257 0.246575 0 -0.122316 0.246575 0 -0.119429 0.246575 0 -0.116594 0.246575 0 -0.113808 0.246575 0 -0.111069 0.246575 0 -0.108377 0.246575 0 -0.10573 0.246575 0 -0.103125 0.246575 0 -0.100562 0.246575 0 -0.0980383 0.246575 0 -0.0955532 0.246575 0 -0.0931052 0.246575 0 -0.0906929 0.246575 0 -0.0883151 0.246575 0 -0.0859705 0.246575 0 -0.083658 0.246575 0 -0.0813766 0.246575 0 -0.079125 0.246575 0 -0.0769022 0.246575 0 -0.0747073 0.246575 0 -0.0725393 0.246575 0 -0.0703973 0.246575 0 -0.0682804 0.246575 0 -0.0661877 0.246575 0 -0.0641184 0.246575 0 -0.0620717 0.246575 0 -0.0600469 0.246575 0 -0.0580433 0.246575 0 -0.05606 0.246575 0 -0.0540964 0.246575 0 -0.052152 0.246575 0 -0.0502259 0.246575 0 -0.0483176 0.246575 0 -0.0464266 0.246575 0 -0.0445522 0.246575 0 -0.0426939 0.246575 0 -0.0408511 0.246575 0 -0.0390233 0.246575 0 -0.03721 0.246575 0 -0.0354107 0.246575 0 -0.0336249 0.246575 0 -0.0318522 0.246575 0 -0.0300921 0.246575 0 -0.0283442 0.246575 0 -0.0266079 0.246575 0 -0.024883 0.246575 0 -0.023169 0.246575 0 -0.0214655 0.246575 0 -0.0197721 0.246575 0 -0.0180885 0.246575 0 -0.0164142 0.246575 0 -0.0147488 0.246575 0 -0.0130922 0.246575 0 -0.0114438 0.246575 0 -0.0098033 0.246575 0 -0.00817043 0.246575 0 -0.00654482 0.246575 0 -0.00492613 0.246575 0 -0.00331406 0.246575 0 -0.00170827 0.246575 0 -0.000108449 0.246575 0 0.00148572 0.246575 0 0.00307454 0.246575 0 0.00465832 0.246575 0 0.00623737 0.246575 0 0.00781198 0.246575 0 0.00938247 0.246575 0 0.0109491 0.246575 0 0.0125123 0.246575 0 0.0140722 0.246575 0 0.0156291 0.246575 0 0.0171834 0.246575 0 0.0187354 0.246575 0 0.0202853 0.246575 0 0.0218335 0.246575 0 0.0233803 0.246575 0 0.0249259 0.246575 0 0.0264706 0.246575 0 0.0280148 0.246575 0 0.0295588 0.246575 0 0.0311029 0.246575 0 0.0326475 0.246575 0 0.034193 0.246575 0 0.0357395 0.246575 0 0.0372875 0.246575 0 0.0388373 0.246575 0 0.0403892 0.246575 0 0.0419434 0.246575 0 0.0435005 0.246575 0 0.0450606 0.246575 0 0.0466241 0.246575 0 0.0481915 0.246575 0 0.0497629 0.246575 0 0.0513388 0.246575 0 0.0529196 0.246575 0 0.0545056 0.246575 0 0.0560971 0.246575 0 0.0576946 0.246575 0 0.0592984 0.246575 0 0.0609089 0.246575 0 0.0625264 0.246575 0 0.0641513 0.246575 0 0.065784 0.246575 0 0.0674248 0.246575 0 0.0690742 0.246575 0 0.0707323 0.246575 0 0.0723997 0.246575 0 0.0740766 0.246575 0 0.0757633 0.246575 0 0.0774601 0.246575 0 0.0791673 0.246575 0 0.0808851 0.246575 0 0.0826136 0.246575 0 0.0843531 0.246575 0 0.0861037 0.246575 0 0.0878653 0.246575 0 0.0896381 0.246575 0 0.0914219 0.246575 0 0.0932167 0.246575 0 0.0950221 0.246575 0 0.096838 0.246575 0 0.0986639 0.246575 0 0.100499 0.246575 0 0.102344 0.246575 0 0.104197 0.246575 0 0.106057 0.246575 0 0.107925 0.246575 0 0.109798 0.246575 0 0.111677 0.246575 0 0.113559 0.246575 0 0.115444 0.246575 0 0.117331 0.246575 0 0.119219 0.246575 0 0.121106 0.246575 0 0.122991 0.246575 0 0.124874 0.246575 0 0.126753 0.246575 0 0.128626 0.246575 0 0.130494 0.246575 0 0.132355 0.246575 0 0.134209 0.246575 0 0.136054 0.246575 0 0.13789 0.246575 0 0.139717 0.246575 0 0.141533 0.246575 0 0.143339 0.246575 0 0.145135 0.246575 0 0.146919 0.246575 0 0.148693 0.246575 0 0.150455 0.246575 0 0.152207 0.246575 0 0.153947 0.246575 0 0.155676 0.246575 0 0.157395 0.246575 0 0.159102 0.246575 0 0.1608 0.246575 0 0.162487 0.246575 0 0.164165 0.246575 0 0.165833 0.246575 0 0.167492 0.246575 0 0.169142 0.246575 0 0.170783 0.246575 0 0.172416 0.246575 0 0.174042 0.246575 0 0.17566 0.246575 0 0.177271 0.246575 0 0.178875 0.246575 0 0.180473 0.246575 0 0.182065 0.246575 0 0.183651 0.246575 0 0.185232 0.246575 0 0.186808 0.246575 0 0.18838 0.246575 0 0.189948 0.246575 0 0.191511 0.246575 0 0.193072 0.246575 0 0.194629 0.246575 0 0.196183 0.246575 0 0.197735 0.246575 0 0.199285 0.246575 0 0.200833 0.246575 0 0.20238 0.246575 0 0.203925 0.246575 0 0.20547 0.246575 0 0.207014 0.246575 0 0.208558 0.246575 0 0.210102 0.246575 0 0.211647 0.246575 0 0.213192 0.246575 0 0.214738 0.246575 0 0.216286 0.246575 0 0.217835 0.246575 0 0.219386 0.246575 0 0.220939 0.246575 0 0.222495 0.246575 0 0.224054 0.246575 0 0.225616 0.246575 0 0.227181 0.246575 0 0.22875 0.246575 0 0.230323 0.246575 0 0.231901 0.246575 0 0.233483 0.246575 0 0.23507 0.246575 0 0.236662 0.246575 0 0.23826 0.246575 0 0.239864 0.246575 0 0.241474 0.246575 0 0.243091 0.246575 0 0.244714 0.246575 0 0.246345 0.246575 0 0.247983 0.246575 0 0.249629 0.246575 0 0.251283 0.246575 0 0.252946 0.246575 0 0.254618 0.246575 0 0.256299 0.246575 0 0.257989 0.246575 0 0.25969 0.246575 0 0.261401 0.246575 0 0.263124 0.246575 0 0.264857 0.246575 0 0.266602 0.246575 0 0.268359 0.246575 0 0.270129 0.246575 0 0.271912 0.246575 0 0.273708 0.246575 0 0.275518 0.246575 0 0.277343 0.246575 0 0.279183 0.246575 0 0.281038 0.246575 0 0.282909 0.246575 0 0.284797 0.246575 0 0.286702 0.246575 0 0.288625 0.246575 0 0.290566 0.246575 0 0.292526 0.246575 0 0.294506 0.246575 0 0.296507 0.246575 0 0.298528 0.246575 0 0.300572 0.246575 0 0.302637 0.246575 0 0.304727 0.246575 0 0.30684 0.246575 0 0.308979 0.246575 0 0.311144 0.246575 0 0.313335 0.246575 0 0.315554 0.246575 0 0.317802 0.246575 0 0.32008 0.246575 0 0.322389 0.246575 0 0.32473 0.246575 0 0.327105 0.246575 0 0.329513 0.246575 0 0.331958 0.246575 0 0.334439 0.246575 0 0.336959 0.246575 0 0.339519 0.246575 0 0.34212 0.246575 0 0.344764 0.246575 0 0.347452 0.246575 0 0.350187 0.246575 0 0.352969 0.246575 0 0.355801 0.246575 0 0.358684 0.246575 0 0.361621 0.246575 0 0.364612 0.246575 0 0.367662 0.246575 0 0.37077 0.246575 0 0.373941 0.246575 0 0.377175 0.246575 0 0.380474 0.246575 0 0.383843 0.246575 0 0.387281 0.246575 0 0.390792 0.246575 0 
[...]
POINT_DATA 13846
SCALARS Op_Q0_Npv double
LOOKUP_TABLE default
0 0 0 0 0 0 0 0 0 0 0 0 0 0 0 0 0 0 0 0 0 0 0 0 0 0 0 0 0 0 0 0 0 0 0 0 0 0 0 0 0 0 0 0 0 0 0 0 0 0 0 0 0 0 0 0 0 0 0 0 0 0 0 0 0 0 0 0 0 0 0 0 0 0 0 0 0 0 0 0 0 0 0 0 0 0 0 0 0 0 0 0 0 0 0 0 0 0 0 0 0 0 0 0 0 0 0 0 0 0 0 0 0 0 0 0 0 0 0 0 0 0 0 0 0 0 0 0 0 0 0 0 0 0 0 0 0 2.675464714e-05 0.001246244746 0.003121975406 0.005012856569 0.006919075771 0.008840765776 0.01077799748 0.01273077271 0.01469901707 0.01668257301 0.01868119349 0.02069453633 0.02272215972 0.02476351905 0.02681796549 0.02888474655 0.03096300882 0.03305180314 0.03515009218 0.03725676046 0.03937062656 0.04149045741 0.04361498405 0.0457429185 0.04787297117 0.05000386821 0.05213436818 0.05426327756 0.05638946467 0.05851187155 0.06062952361 0.06274153702 0.06484712362 0.06694559372 0.0690363567 0.07111891986 0.07319288568 0.07525794773 0.07731388575 0.07936055986 0.08139790438 0.08342592143 0.08544467444 0.08745428171 0.0894549103 0.09144677012 0.0934301084 0.09540520461 0.09737236579 0.09933192224 0.1012842237 0.1032296361 0.1051685381 0.1071013191 0.1090283761 0.1109501124 0.1128669357 0.1147792562 0.1166874858 0.1185920372 0.1204933224 0.1223917528 0.1242877381 0.126181686 0.128074002 0.1299650893 0.1318553483 0.1337451769 0.1356349703 0.1375251211 0.1394160197 0.1413080538 0.1432016093 0.1450970702 0 0 0 0 0 0 0 0 0 0 0 0 0 0 0 0 0 0 0 0 0 0 0 0 0 0 0 0 0 0 0 0 0 0 0 0 0 0 0 0 0 0 0 0 0 0 0 0 0 0 0 0 0 0 0 0 0 0 0 0 0 0 0 0 0 0 0 0 0 0 0 0 0 0 0 0 0 0 0 0 0 0 0 0 0 0 0 0 0 0 
0 0 0 0 0 0 0 0 0 0 0 0 0 0 0 0 0 0 0 0 0 0 0 0 0 0 0 0 0 0 0 0 0 0 0 0 0 0 0 0 0 0 0 0 0 0 0 0 0 0 0 0 0 0 0 0 0 0 0 0 0 0 0 0 0 0 0 0 0 0 0 0 0 0 0 0 0 0 0 0 0 0 0 0 0 0 0 0 0 0 0 0 0 0 0 0 0 0 0 0 0 0 0 0 0 0 0 6.843333424e-08 1.430381255e-07 2.306297525e-07 3.392968638e-07 4.791862695e-07 6.635005005e-07 9.098172299e-07 1.241872256e-06 1.692001018e-06 2.304510096e-06 3.140359519e-06 4.283692975e-06 5.850976649e-06 8.003827861e-06 1.096707517e-05 1.505425494e-05 2.07037079e-05 2.852982786e-05 3.939603345e-05 5.45189767e-05 7.561780589e-05 0.0001051286143 0.0001465134983 0.0002047073642 0.0002867659383 0.0004028086058 0.0005673946662 0.0008015387806 0.001135672101 0.001614006958 0.00230099117 0.003287406429 0.004549636445 0.006011647739 0.007619285478 0.009333657477 0.01112724229 0.01298069969 0.01488042356 0.01681680915 0.01878302776 0.020774162 0.02278659669 0.02481759117 0.02686498037 0.02892696732 0.0310019808 0.03308857941 0.035185389 0.03729106412 0.03940426666 0.04152365692 0.04364789348 0.04577563915 0.04790557089 0.05003639194 0.05216684505 0.0542957255 0.05642189327 0.05854428363 0.06066191582 0.06277389946 0.06487943864 0.06697783364 0.06906848044 0.07115086786 0.07322457261 0.07528925234 0.07734463662 0.07939051569 0.08142672683 0.08345313767 0.08546962582 0.08747605367 0.08947223663 0.09145790282 0.09343264103 0.09539583302 0.09734656479 0.09928350954 0.1012047728 0.1031076874 0.1049885405 0.106842212 0.1086616935 0.11043745 0.1121565721 0.1138016525 0.1153492954 0.1167681432 0.1180162636 0.119037693 0.1197578653 0.1200775759 0.1198650022 0.1189451734 0.1170860738 0.1139803077 0.1092209178 0.1022694994 0.09241416049 0.07871410505 0.0599265833 0.03441060261 0 0 0 0 0 0 0 0 0 0 0 0 0 0 0 0 0 0 0 0 0 0 0 0 0 0 0 0 0 0 0 0 0 0 0 0 0 0 0 0 0 0 0 0 0 0 0 0 0 0 0 0 0 0 0 0 0 0 0 0 0 0 0 0 0 0 0 0 0 0 0 0 0 0 0 0 0 0 0 0 0 0 0 0 0 0 0 0 0 0 
0 0 0 0 0 0 0 0 0 0 0 0 0 0 0 0 0 0 0 0 0 0 0 0 0 0 0 0 0 0 0 0 0 0 0 0 0 0 0 0 0 0 0 0 0 0 0 0 0 0 0 0 0 0 0 0 0 0 0 0 0 0 0 0 0 0 0 0 0 0 0 0 0 0 0 0 0 0 0 0 0 0 0 0 0 0 0 0 0 0 0 0 0 0 0 0 0 0 0 0 0 0 0 0 0 0 0 4.09860371e-07 8.50525675e-07 1.355456502e-06 1.96322819e-06 2.72051352e-06 3.685705492e-06 4.933484145e-06 6.560687709e-06 8.693952487e-06 1.149972532e-05 1.519743694e-05 2.007686626e-05 2.65210394e-05 3.503641044e-05 4.629258227e-05 6.117446388e-05 8.08505383e-05 0.0001068618315 0.0001412371958 0.0001866415584 0.0002465646314 0.0003255578284 0.00042952602 0.0005660769197 0.000744921905 0.0009783037804 0.001281392266 0.001672524817 0.002173058567 0.002806405046 0.003595486897 0.004557292485 0.005692717258 0.006988840862 0.008426672862 0.00998516524 0.01164428688 0.01338638373 0.01519652052 0.0170624024 0.01897409174 0.02092364663 0.0229047519 0.02491237958 0.02694249464 0.02899181082 0.03105759445 0.03313751139 0.03522951101 0.03733174091 0.03944248667 0.04156013144 0.04368313096 0.04581000013 0.04793930818 0.05006967951 0.05219979831 0.05432841504 0.05645435342 0.05857651682 0.06069389318 0.06280555785 0.06491067385 0.06700848958 0.06909833361 0.07117960507 0.07325176064 0.07531429698 0.07736672822 0.07940855713 0.08143923887 0.08345813535 0.08546445789 0.08745719501 0.08943502156 0.09139618414 0.09333835676 0.09525845921 0.09715242894 0.09901493523 0.1008390226 0.1026156675 0.1043332303 0.1059767822 0.1075272828 0.1089605858 0.1102462461 0.111346106 0.1122126439 0.1127870789 0.1129972462 0.1127552929 0.1119552935 0.1104709811 0.1081538835 0.1048323784 0.1003124208 0.09438109807 0.08681472681 0.07739400162 0.06592984083 0.05230516856 0.03654011728 0.01889127664 0 0 0 0 0 0 0 0 0 0 0 0 0 0 0 0 0 0 0 0 0 0 0 0 0 0 0 0 0 0 0 0 0 0 0 0 0 0 0 0 0 0 0 0 0 0 0 0 0 0 0 0 0 0 0 0 0 0 0 0 0 0 0 0 0 0 0 0 0 0 0 0 0 0 0 0 0 0 0 0 0 0 0 0 0 0 0 0 0 0 
0 0 0 0 0 0 0 0 0 0 0 0 0 0 0 0 0 0 0 0 0 0 0 0 0 0 0 0 0 0 0 0 0 0 0 0 0 0 0 0 0 0 0 0 0 0 0 0 0 0 0 0 0 0 0 0 0 0 0 0 0 0 0 0 0 0 0 0 0 0 0 0 0 0 0 0 0 0 0 0 0 0 0 0 0 0 0 0 0 0 0 0 0 0 0 0 0 0 0 0 0 0 0 0 0 0 0 1.3494882e-06 2.78379764e-06 4.393813836e-06 6.281780105e-06 8.567587922e-06 1.139611378e-05 1.494607227e-05 1.944088351e-05 2.516215513e-05 3.246650456e-05 4.18065973e-05 5.375745147e-05 6.904925354e-05 8.860813704e-05 0.0001136065763 0.00014552521 0.0001862279808 0.0002380523742 0.0003039161323 0.0003874409117 0.0004930916783 0.0006263277908 0.0007937572301 0.001003278649 0.001264186197 0.001587198911 0.001984359979 0.00246873316 0.003053809457 0.003752539812 0.004575957001 0.005531498491 0.006621501865 0.007843061673 0.009189019411 0.01064883729 0.01221042619 0.01386141769 0.01558991116 0.01738493615 0.01923668944 0.02113660853 0.0230773356 0.02505261519 0.02705715797 0.02908649326 0.03113682526 0.03320490198 0.03528790166 0.03738333825 0.0394889859 0.04160282082 0.04372297841 0.04584772321 0.04797542903 0.05010456687 0.05223369828 0.05436147218 0.05648662332 0.05860797084 0.06072441567 0.06283493562 0.0649385771 0.06703444426 0.0691216839 0.07119946176 0.07326693351 0.07532320783 0.07736730005 0.07939807465 0.08141417414 0.08341393184 0.08539526527 0.08735554622 0.08929144327 0.09119873167 0.09307206503 0.09490470273 0.09668818679 0.09841196181 0.100062932 0.1016249507 0.1030782387 0.1043987331 0.1055573701 0.1065193154 0.1072431634 0.1076801408 0.1077733685 0.1074572559 0.1066571347 0.1052892702 0.1032614286 0.1004742414 0.09682361516 0.09220453241 0.08651657888 0.079671542 0.07160335503 0.06228047855 0.05172044312 0.04000560671 0.02729803771 0.0138495589 0 0 0 0 0 0 0 0 0 0 0 0 0 0 0 0 0 0 0 0 0 0 0 0 0 0 0 0 0 0 0 0 0 0 0 0 0 0 0 0 0 0 0 0 0 0 0 0 0 0 0 0 0 0 0 0 0 0 0 0 0 0 0 0 0 0 0 0 0 0 0 0 0 0 0 0 0 0 0 0 0 0 0 0 0 0 0 0 0 0 
0 0 0 0 0 0 0 0 0 0 0 0 0 0 0 0 0 0 0 0 0 0 0 0 0 0 0 0 0 0 0 0 0 0 0 0 0 0 0 0 0 0 0 0 0 0 0 0 0 0 0 0 0 0 0 0 0 0 0 0 0 0 0 0 0 0 0 0 0 0 0 0 0 0 0 0 0 0 0 0 0 0 0 0 0 0 0 0 0 0 0 0 0 0 0 0 0 0 0 0 0 0 0 0 0 0 0 9.043414239e-06 1.846560021e-05 2.866348467e-05 4.006556505e-05 5.314757997e-05 6.844946024e-05 8.659414203e-05 0.0001083086149 0.0001344475527 0.0001660198232 0.0002042180756 0.0002504514552 0.0003063812596 0.0003739590133 0.0004554659646 0.000553552367 0.0006712740767 0.0008121229486 0.0009800462757 0.001179449136 0.001415172164 0.001692436217 0.002016745239 0.002393740084 0.002829000442 0.003327800865 0.003894842033 0.004534001146 0.005248174546 0.006039313662 0.006908758925 0.007857898106 0.00888888848 0.01000448158 0.01120714666 0.01249789093 0.01387610924 0.01533957456 0.01688457305 0.0185061889 0.02019865164 0.02195568309 0.02377080485 0.02563758681 0.02754983127 0.0295016963 0.03148776696 0.03350308505 0.03554314822 0.03760388833 0.03968163706 0.04177308517 0.04387523982 0.04598538284 0.04810103135 0.05021990124 0.05233987297 0.05445895882 0.05657527 0.05868698219 0.06079229754 0.06288940132 0.0649764112 0.06705133034 0.06911199133 0.07115596817 0.0731804867 0.07518232066 0.07715767192 0.07910203366 0.08101003537 0.08287526915 0.08469009717 0.08644544117 0.08813055596 0.08973279029 0.09123734054 0.09262700501 0.09388194948 0.09497949839 0.09589396986 0.09659657765 0.09705542775 0.09723564286 0.09709965263 0.09660769152 0.09571854898 0.09439061558 0.09258326432 0.09025859487 0.08738354836 0.08393236825 0.07988933369 0.07525164041 0.07003218363 0.06426193819 0.05799147285 0.0512910217 0.04424842528 0.03696421317 0.02954320885 0.02208243695 0.01465602945 0.007299624701 0 0 0 0 0 0 0 0 0 0 0 0 0 0 0 0 0 0 0 0 0 0 0 0 0 0 0 0 0 0 0 0 0 0 0 0 0 0 0 0 0 0 0 0 0 0 0 0 0 0 0 0 0 0 0 0 0 0 0 0 0 0 0 0 0 0 0 0 0 0 0 0 0 0 0 0 0 0 0 0 0 0 0 0 0 0 0 0 0 0 
0 0 0 0 0 0 0 0 0 0 0 0 0 0 0 0 0 0 0 0 0 0 0 0 0 0 0 0 0 0 0 0 0 0 0 0 0 0 0 0 0 0 0 0 0 0 0 0 0 0 0 0 0 0 0 0 0 0 0 0 0 0 0 0 0 0 0 0 0 0 0 0 0 0 0 0 0 0 0 0 0 0 0 0 0 0 0 0 0 0 0 0 0 0 0 0 0 0 0 0 0 0 0 0 0 0 0 2.910925997e-05 5.905081482e-05 9.068341246e-05 0.0001249066015 0.0001626781277 0.0002050313193 0.0002530926756 0.0003080994431 0.00037141686 0.0004445546254 0.0005291820033 0.0006271408111 0.0007404553822 0.000871338443 0.001022191751 0.001195600326 0.001394319265 0.00162125246 0.001879423264 0.00217193817 0.002501946108 0.002872597892 0.003287012506 0.003748258804 0.004259361853 0.004823340915 0.005443278477 0.006122403916 0.006864149032 0.007672098258 0.008549730401 0.009499883238 0.01052410128 0.01162269937 0.01279527062 0.01404080822 0.01535816379 0.01674611277 0.01820322363 0.01972770809 0.02131730621 0.02296923053 0.02468017123 0.02644635186 0.02826361939 0.03012755189 0.03203356948 0.03397703754 0.0359533551 0.03795802447 0.03998670098 0.0420352233 0.04409962588 0.04617613571 0.04826115544 0.05035123459 0.0524430303 0.05453325854 0.05661863617 0.05869581382 0.06076129947 0.06281137234 0.06484198651 0.0668487143 0.06882666224 0.07077032573 0.07267347333 0.07452902762 0.07632894542 0.07806410062 0.07972417398 0.08129755536 0.08277126471 0.08413089958 0.08536061756 0.08644316333 0.08735995046 0.08809120841 0.08861620475 0.08891355172 0.08896160379 0.08873894953 0.08822499589 0.08740063626 0.0862489844 0.08475614559 0.08291198353 0.08071082708 0.07815204699 0.0752404195 0.0719861852 0.06840471071 0.06451567145 0.06034171298 0.05590658734 0.05123287818 0.04633954188 0.04123967226 0.03593909824 0.0304366246 0.02472685064 0.01880641088 0.01268391816 0.006392413706 0 0 0 0 0 0 0 0 0 0 0 0 0 0 0 0 0 0 0 0 0 0 0 0 0 0 0 0 0 0 0 0 0 0 0 0 0 0 0 0 0 0 0 0 0 0 0 0 0 0 0 0 0 0 0 0 0 0 0 0 0 0 0 0 0 0 0 0 0 0 0 0 0 0 0 0 0 0 0 0 0 0 0 0 0 0 0 0 0 0 
0 0 0 0 0 0 0 0 0 0 0 0 0 0 0 0 0 0 0 0 0 0 0 0 0 0 0 0 0 0 0 0 0 0 0 0 0 0 0 0 0 0 0 0 0 0 0 0 0 0 0 0 0 0 0 0 0 0 0 0 0 0 0 0 0 0 0 0 0 0 0 0 0 0 0 0 0 0 0 0 0 0 0 0 0 0 0 0 0 0 0 0 0 0 0 0 0 0 0 0 0 0 0 0 0 0 0 6.271366457e-05 0.0001266177387 0.0001929375164 0.0002629292174 0.0003378902564 0.0004191686829 0.0005081719443 0.0006063747227 0.000715325607 0.0008366523901 0.0009720658294 0.001123361789 0.001292421788 0.001481212138 0.001691781993 0.001926260875 0.002186856328 0.002475852503 0.002795610354 0.003148569781 0.003537253276 0.003964269305 0.00443231173 0.004944149167 0.005502595843 0.006110454532 0.00677042472 0.007484978975 0.008256231512 0.009085857055 0.009975155186 0.01092535087 0.01193804109 0.01301505761 0.01415792618 0.01536725599 0.01664290706 0.01798410781 0.01938957832 0.02085764617 0.02238632636 0.02397336207 0.02561623618 0.0273121679 0.02905810703 0.03085073477 0.03268647509 0.03456151713 0.03647184595 0.03841327772 0.04038149478 0.04237207609 0.04438051948 0.04640225293 0.04843263296 0.05046692931 0.05250029569 0.05452772718 0.05654400532 0.05854363243 0.06052075694 0.06246909232 0.06438183241 0.06625168191 0.06807080925 0.06983071894 0.07152220702 0.07313533308 0.07465941317 0.0760830374 0.0773941159 0.07857995632 0.07962737522 0.08052284465 0.08125267377 0.08180322335 0.08216114901 0.08231366636 0.08224882829 0.08195580207 0.08142513092 0.08064896257 0.07962122581 0.07833773621 0.07679621411 0.07499620254 0.0729388809 0.07062678182 0.06806343413 0.0652529747 0.06219979287 0.05890829332 0.05538287905 0.05162826774 0.04765022669 0.04345678428 0.03905987005 0.03447719271 0.02973395164 0.02486371479 0.01990753177 0.01491021079 0.009912926896 0.004942434122 0 0 0 0 0 0 0 0 0 0 0 0 0 0 0 0 0 0 0 0 0 0 0 0 0 0 0 0 0 0 0 0 0 0 0 0 0 0 0 0 0 0 0 0 0 0 0 0 0 0 0 0 0 0 0 0 0 0 0 0 0 0 0 0 0 0 0 0 0 0 0 0 0 0 0 0 0 0 0 0 0 0 0 0 0 0 0 0 0 0 
0 0 0 0 0 0 0 0 0 0 0 0 0 0 0 0 0 0 0 0 0 0 0 0 0 0 0 0 0 0 0 0 0 0 0 0 0 0 0 0 0 0 0 0 0 0 0 0 0 0 0 0 0 0 0 0 0 0 0 0 0 0 0 0 0 0 0 0 0 0 0 0 0 0 0 0 0 0 0 0 0 0 0 0 0 0 0 0 0 0 0 0 0 0 0 0 0 0 0 0 0 0 0 0 0 0 0 0.0001048576683 0.0002110301946 0.000319896061 0.0004328539047 0.0005513271915 0.0006767685144 0.0008106637809 0.0009545362621 0.001109950493 0.00127851602 0.00146189101 0.001661785686 0.001879965559 0.002118254324 0.002378536166 0.002662757096 0.002972924685 0.003311105405 0.003679418563 0.004080025817 0.004515115463 0.004986881423 0.005497498187 0.006049095141 0.006643736438 0.007283415264 0.007970071985 0.008705640968 0.009492115667 0.01033159132 0.01122620335 0.01217786396 0.01318784099 0.01425682972 0.01538524901 0.01657318998 0.01782064181 0.01912743359 0.02049311539 0.02191687186 0.0233974796 0.02493330099 0.02652230063 0.02816207128 0.02984986004 0.03158259018 0.03335687711 0.03516903921 0.03701510497 0.03889081793 0.04079163988 0.04271275263 0.0446490576 0.04659517245 0.04854542368 0.05049383462 0.05243410849 0.05435960703 0.05626332559 0.05813786645 0.0599754126 0.0617677047 0.06350602669 0.0651813952 0.06678456301 0.0683059515 0.06973569749 0.07106371638 0.07227978129 0.07337361719 0.07433500773 0.07515391171 0.07582058528 0.07632570483 0.07666048536 0.07681678862 0.07678721571 0.07656517931 0.07614495237 0.07552169183 0.07469143901 0.07365110112 0.07239842253 0.07093195771 0.0692510613 0.06735591226 0.06524758939 0.06292821145 0.06040114788 0.0576712924 0.05474537371 0.05163225265 0.04834312832 0.04489155362 0.04129313514 0.03756481189 0.03372364256 0.02978513807 0.02576135761 0.02165925323 0.01748007721 0.01322096248 0.008879812163 0.004463888722 0 0 0 0 0 0 0 0 0 0 0 0 0 0 0 0 0 0 0 0 0 0 0 0 0 0 0 0 0 0 0 0 0 0 0 0 0 0 0 0 0 0 0 0 0 0 0 0 0 0 0 0 0 0 0 0 0 0 0 0 0 0 0 0 0 0 0 0 0 0 0 0 0 0 0 0 0 0 0 0 0 0 0 0 0 0 0 0 0 0 
0 0 0 0 0 0 0 0 0 0 0 0 0 0 0 0 0 0 0 0 0 0 0 0 0 0 0 0 0 0 0 0 0 0 0 0 0 0 0 0 0 0 0 0 0 0 0 0 0 0 0 0 0 0 0 0 0 0 0 0 0 0 0 0 0 0 0 0 0 0 0 0 0 0 0 0 0 0 0 0 0 0 0 0 0 0 0 0 0 0 0 0 0 0 0 0 0 0 0 0 0 0 0 0 0 0 0 0.0001496205765 0.0003005810358 0.0004542775134 0.0006121252353 0.0007755609393 0.0009460451782 0.001125064664 0.001314134572 0.001514800702 0.001728641379 0.001957268945 0.002202330676 0.002465508958 0.002748520557 0.003053114881 0.003381071195 0.00373419494 0.004114313471 0.004523271803 0.004962929165 0.005435157262 0.005941840958 0.006484881334 0.007066199568 0.007687737567 0.008351448245 0.009059265852 0.009813047976 0.010614491 0.01146504636 0.01236590663 0.01331815984 0.01432310194 0.0153821229 0.01649631358 0.01766610001 0.01889147201 0.02017207155 0.02150725286 0.02289610816 0.02433745981 0.02582983166 0.02737141334 0.02896002777 0.0305931068 0.03226767614 0.03398034833 0.03572732121 0.03750437986 0.03930689994 0.04112985163 0.04296780354 0.04481492678 0.04666499938 0.04851141177 0.05034717383 0.05216492439 0.05395694379 0.05571517052 0.05743122268 0.05909642523 0.06070184371 0.06223833196 0.06369684309 0.06506842499 0.06634417125 0.06751528901 0.06857316833 0.069509451 0.07031609704 0.070985447 0.07151027863 0.07188385687 0.07209997683 0.07215300031 0.07203788722 0.0717502241 0.07128625262 0.07064290134 0.06981782403 0.06880944666 0.06761702422 0.0662407057 0.06468160245 0.06294185138 0.06102466029 0.05893431929 0.05667616011 0.05425644628 0.05168218259 0.04896084364 0.04610004034 0.04310716853 0.03998911862 0.03675214841 0.0334020529 0.02994475072 0.02638735356 0.02273964899 0.01901568881 0.01523483057 0.01142119127 0.007600243329 0.003791705721 0 0 0 0 0 0 0 0 0 0 0 0 0 0 0 0 0 0 0 0 0 0 0 0 0 0 0 0 0 0 0 0 0 0 0 0 0 0 0 0 0 0 0 0 0 0 0 0 0 0 0 0 0 0 0 0 0 0 0 0 0 0 0 0 0 0 0 0 0 0 0 0 0 0 0 0 0 0 0 0 0 0 0 0 0 0 0 0 0 0 
0 0 0 0 0 0 0 0 0 0 0 0 0 0 0 0 0 0 0 0 0 0 0 0 0 0 0 0 0 0 0 0 0 0 0 0 0 0 0 0 0 0 0 0 0 0 0 0 0 0 0 0 0 0 0 0 0 0 0 0 0 0 0 0 0 0 0 0 0 0 0 0 0 0 0 0 0 0 0 0 0 0 0 0 0 0 0 0 0 0 0 0 0 0 0 0 0 0 0 0 0 0 0 0 0 0 0 0.0001941753538 0.0003896484205 0.0005877989839 0.0007900210025 0.0009977246433 0.001212337901 0.001435307954 0.001668102259 0.001912209402 0.002169139701 0.002440425593 0.00272762183 0.003032305554 0.003356076302 0.003700556004 0.004067388994 0.004458241977 0.004874803708 0.005318783975 0.005791911146 0.006295927329 0.006832580032 0.00740360953 0.008010732028 0.008655620697 0.009339889606 0.01006508886 0.01083272047 0.0116442784 0.01250129584 0.01340534232 0.01435787563 0.015359934 0.01641219748 0.01751515678 0.01866901694 0.01987383885 0.02112946452 0.02243543437 0.02379093852 0.02519479484 0.02664544057 0.02814092651 0.02967890796 0.03125663106 0.03287091636 0.03451814211 0.03619423041 0.03789463787 0.03961435251 0.04134789717 0.04308933959 0.04483230914 0.04657001962 0.04829529804 0.05000061878 0.05167814304 0.05331976292 0.05491714975 0.05646180613 0.05794512089 0.05935842621 0.06069306972 0.06194078108 0.06309360799 0.06414385823 0.06508415097 0.065907464 0.06660717676 0.06717710953 0.06761155918 0.06790533226 0.06805377623 0.06805280942 0.06789895012 0.06758934472 0.06712179411 0.06649477692 0.06570746714 0.06475974335 0.06365218616 0.06238606072 0.06096328206 0.05938636294 0.05765834648 0.05578273016 0.0537633917 0.05160453223 0.04931065533 0.04688660094 0.04433764919 0.04166969805 0.03888949819 0.03600490271 0.03302504624 0.02996034173 0.02682215524 0.02362203809 0.02037048283 0.01707536386 0.01374055165 0.01036562315 0.006947967934 0.003488444716 0 0 0 0 0 0 0 0 0 0 0 0 0 0 0 0 0 0 0 0 0 0 0 0 0 0 0 0 0 0 0 0 0 0 0 0 0 0 0 0 0 0 0 0 0 0 0 0 0 0 0 0 0 0 0 0 0 0 0 0 0 0 0 0 0 0 0 0 0 0 0 0 0 0 0 0 0 0 0 0 0 0 0 0 0 0 0 0 0 0 