# vtk DataFile Version 3.0
# pde1d
ASCII
DATASET STRUCTURED_GRID
DIMENSIONS 301 49 1
POINTS 14749 double
-0.299256 0.498630 0 -0.293779 0.498630 0 -0.288302 0.498630 0 -0.282827 0.498630 0 -0.277354 0.498630 0 -0.271882 0.498630 0 -0.266413 0.498630 0 -0.260946 0.498630 0 -0.255482 0.498630 0 -0.250021 0.498630 0 -0.244564 0.498630 0 -0.239112 0.498630 0 -0.233665 0.498630 0 -0.228224 0.498630 0 -0.222789 0.498630 0 -0.217363 0.498630 0 -0.211945 0.498630 0 -0.206538 0.498630 0 -0.201143 0.498630 0 -0.19576 0.498630 0 -0.190393 0.498630 0 -0.185042 0.498630 0 -0.17971 0.498630 0 -0.174399 0.498630 0 -0.169111 0.498630 0 -0.16385 0.498630 0 -0.158617 0.498630 0 -0.153415 0.498630 0 -0.148247 0.498630 0 -0.143117 0.498630 0 -0.138027 0.498630 0 -0.132981 0.498630 0 -0.127982 0.498630 0 -0.123032 0.498630 0 -0.118136 0.498630 0 -0.113295 0.498630 0 -0.108513 0.498630 0 -0.103793 0.498630 0 -0.0991367 0.498630 0 -0.0945466 0.498630 0 -0.0900247 0.498630 0 -0.0855729 0.498630 0 -0.0811925 0.498630 0 -0.0768846 0.498630 0 -0.0726503 0.498630 0 -0.0684899 0.498630 0 -0.064404 0.498630 0 -0.0603924 0.498630 0 -0.0564551 0.498630 0 -0.0525915 0.498630 0 -0.048801 0.498630 0 -0.0450828 0.498630 0 -0.0414358 0.498630 0 -0.037859 0.498630 0 -0.034351 0.498630 0 -0.0309104 0.498630 0 -0.0275358 0.498630 0 -0.0242257 0.498630 0 -0.0209784 0.498630 0 -0.0177923 0.498630 0 -0.0146659 0.498630 0 -0.0115973 0.498630 0 -0.00858496 0.498630 0 -0.00562723 0.498630 0 -0.00272244 0.498630 0 0.000131038 0.498630 0 0.00293479 0.498630 0 0.0056904 0.498630 0 0.0083994 0.498630 0 0.0110633 0.498630 0 0.0136835 0.498630 0 0.0162615 0.498630 0 0.0187987 0.498630 0 0.0212964 0.498630 0 0.0237559 0.498630 0 0.0261784 0.498630 0 0.0285652 0.498630 0 0.0309175 0.498630 0 0.0332363 0.498630 0 0.0355228 0.498630 0 0.0377781 0.498630 0 0.0400032 0.498630 0 0.042199 0.498630 0 0.0443665 0.498630 0 0.0465066 0.498630 0 0.0486202 0.498630 0 0.0507082 0.498630 0 0.0527713 0.498630 0 0.0548104 0.498630 0 0.0568262 0.498630 0 0.0588195 0.498630 0 0.060791 0.498630 0 0.0627413 0.498630 0 0.0646712 0.498630 0 0.0665812 0.498630 0 0.068472 0.498630 0 0.0703441 0.498630 0 0.0721982 0.498630 0 0.0740348 0.498630 0 0.0758544 0.498630 0 0.0776575 0.498630 0 0.0794447 0.498630 0 0.0812164 0.498630 0 0.0829731 0.498630 0 0.0847153 0.498630 0 0.0864433 0.498630 0 0.0881577 0.498630 0 0.0898588 0.498630 0 0.0915469 0.498630 0 0.0932226 0.498630 0 0.0948862 0.498630 0 0.096538 0.498630 0 0.0981784 0.498630 0 0.0998078 0.498630 0 0.101426 0.498630 0 0.103035 0.498630 0 0.104633 0.498630 0 0.106221 0.498630 0 0.1078 0.498630 0 0.109369 0.498630 0 0.11093 0.498630 0 0.112482 0.498630 0 0.114026 0.498630 0 0.115561 0.498630 0 0.117089 0.498630 0 0.118609 0.498630 0 0.120122 0.498630 0 0.121627 0.498630 0 0.123126 0.498630 0 0.124618 0.498630 0 0.126103 0.498630 0 0.127583 0.498630 0 0.129056 0.498630 0 0.130523 0.498630 0 0.131985 0.498630 0 0.133441 0.498630 0 0.134892 0.498630 0 0.136338 0.498630 0 0.137779 0.498630 0 0.139216 0.498630 0 0.140648 0.498630 0 0.142076 0.498630 0 0.143499 0.498630 0 0.144919 0.498630 0 0.146335 0.498630 0 0.147747 0.498630 0 0.149155 0.498630 0 0.150561 0.498630 0 0.151963 0.498630 0 0.153362 0.498630 0 0.154759 0.498630 0 0.156152 0.498630 0 0.157544 0.498630 0 0.158933 0.498630 0 0.160319 0.498630 0 0.161704 0.498630 0 0.163087 0.498630 0 0.164467 0.498630 0 0.165847 0.498630 0 0.167224 0.498630 0 0.168601 0.498630 0 0.169976 0.498630 0 0.17135 0.498630 0 0.172723 0.498630 0 0.174096 0.498630 0 0.175468 0.498630 0 0.176839 0.498630 0 0.17821 0.498630 0 0.17958 0.498630 0 0.180951 0.498630 0 0.182322 0.498630 0 0.183692 0.498630 0 0.185064 0.498630 0 0.186435 0.498630 0 0.187808 0.498630 0 0.189181 0.498630 0 0.190555 0.498630 0 0.19193 0.498630 0 0.193307 0.498630 0 0.194684 0.498630 0 0.196064 0.498630 0 0.197444 0.498630 0 0.198827 0.498630 0 0.200212 0.498630 0 0.201598 0.498630 0 0.202987 0.498630 0 0.204378 0.498630 0 0.205771 0.498630 0 0.207167 0.498630 0 0.208566 0.498630 0 0.209967 0.498630 0 0.211372 0.498630 0 0.21278 0.498630 0 0.214191 0.498630 0 0.215606 0.498630 0 0.217024 0.498630 0 0.218446 0.498630 0 0.219872 0.498630 0 0.221302 0.498630 0 0.222737 0.498630 0 0.224176 0.498630 0 0.22562 0.498630 0 0.227068 0.498630 0 0.228522 0.498630 0 0.229981 0.498630 0 0.231445 0.498630 0 0.232914 0.498630 0 0.23439 0.498630 0 0.235871 0.498630 0 0.237359 0.498630 0 0.238853 0.498630 0 0.240353 0.498630 0 0.24186 0.498630 0 0.243375 0.498630 0 0.244896 0.498630 0 0.246425 0.498630 0 0.247962 0.498630 0 0.249507 0.498630 0 0.251059 0.498630 0 0.252621 0.498630 0 0.254191 0.498630 0 0.25577 0.498630 0 0.257358 0.498630 0 0.258956 0.498630 0 0.260563 0.498630 0 0.262181 0.498630 0 0.263809 0.498630 0 0.265448 0.498630 0 0.267098 0.498630 0 0.268759 0.498630 0 0.270432 0.498630 0 0.272117 0.498630 0 0.273815 0.498630 0 0.275526 0.498630 0 0.27725 0.498630 0 0.278987 0.498630 0 0.280739 0.498630 0 0.282505 0.498630 0 0.284286 0.498630 0 0.286082 0.498630 0 0.287895 0.498630 0 0.289723 0.498630 0 0.291569 0.498630 0 0.293432 0.498630 0 0.295313 0.498630 0 0.297213 0.498630 0 0.299131 0.498630 0 0.30107 0.498630 0 0.303029 0.498630 0 0.305008 0.498630 0 0.30701 0.498630 0 0.309034 0.498630 0 0.311081 0.498630 0 0.313151 0.498630 0 0.315247 0.498630 0 0.317368 0.498630 0 0.319515 0.498630 0 0.321689 0.498630 0 0.323892 0.498630 0 0.326123 0.498630 0 0.328385 0.498630 0 0.330677 0.498630 0 0.333002 0.498630 0 0.33536 0.498630 0 0.337752 0.498630 0 0.340179 0.498630 0 0.342643 0.498630 0 0.345145 0.498630 0 0.347686 0.498630 0 0.350268 0.498630 0 0.352892 0.498630 0 0.355558 0.498630 0 0.35827 0.498630 0 0.361028 0.498630 0 0.363833 0.498630 0 0.366688 0.498630 0 0.369594 0.498630 0 0.372553 0.498630 0 0.375565 0.498630 0 0.378634 0.498630 0 0.381759 0.498630 0 0.384944 0.498630 0 0.38819 0.498630 0 0.391498 0.498630 0 0.394871 0.498630 0 0.398308 0.498630 0 0.401813 0.498630 0 0.405387 0.498630 0 0.409029 0.498630 0 0.412743 0.498630 0 0.416529 0.498630 0 0.420388 0.498630 0 0.424319 0.498630 0 0.428325 0.498630 0 0.432405 0.498630 0 0.43656 0.498630 0 0.440788 0.498630 0 0.445089 0.498630 0 0.449463 0.498630 0 0.453908 0.498630 0 0.458423 0.498630 0 
[...]
POINT_DATA 14749
SCALARS Op_Q0_Npv double
LOOKUP_TABLE default
0 0 0 0 0 0 0 0 0 0 0 0 0 0 0 0 0 0 0 0 0 0 0 0 0 0 0 0 0 0 0 0 0 0 0 0 0 0 0 0 0 0 0 0 0 0 0 0 0 0 0 0 0 0 0 0 0 0 0 0 0 0 0 0 0 0 0 0 0 0 0 0 0 0 0 0 0 0 0 0 0 0 0 0 0 0 0 0 0 0 0 0 0 0 0 0 0 0 0 0 0.0007652683448 0.002685597275 0.004605437309 0.006512378708 0.008406833952 0.01028920359 0.01215987673 0.01401923147 0.0158676354 0.01770544597 0.01953301096 0.02135066884 0.02315874915 0.02495757291 0.0267474529 0.02852869409 0.03030159389 0.03206644251 0.03382352321 0.03557311267 0.0373154812 0.03905089303 0.04077960658 0.04250187468 0.04421794485 0.0459280595 0.04763245615 0.04933136766 0.05102502245 0.05271364465 0.05439745434 0.0560766677 0.05775149723 0.05942215188 0.06108883726 0.06275175576 0.06441110673 0.06606708664 0.06771988922 0.06936970558 0.07101672441 0.07266113204 0.07430311263 0.07594284827 0.07758051913 0.07921630354 0.08085037816 0.08248291807 0.08411409688 0.08574408685 0.08737305902 0.08900118327 0.09062862848 0.0922555626 0.09388215277 0.09550856542 0.09713496636 0.09876152088 0.1003883939 0.1020157499 0.1036437534 0.1052725684 0.1069023594 0.1085332904 0.110165526 0.1117992309 0.1134345702 0.1150717094 0.1167108146 0.1183520525 0 0 0 0 0 0 0 0 0 0 0 0 0 0 0 0 0 0 0 0 0 0 0 0 0 0 0 0 0 0 0 0 0 0 0 0 0 0 0 0 0 0 0 0 0 0 0 0 0 0 0 0 0 0 0 0 0 0 0 0 0 0 0 0 0 0 0 0 0 0 0 0 0 0 0 0 0 0 0 0 0 0 0 0 0 0 0 0 0 0 0 0 0 0 0 0 0 0 0 0 0 0 0 0 0 0 0 0 0 0 0 0 0 0 0 0 0 0 0 0 0 0 0 0 0 0 0 0 0 0 0 
3.391400858e-25 3.156727848e-23 7.313704685e-23 1.386012032e-22 2.492972551e-22 4.412811678e-22 7.770278988e-22 1.365672484e-21 2.398302372e-21 4.209618533e-21 7.385670108e-21 1.295195403e-20 2.270147846e-20 3.976619572e-20 6.96108539e-20 1.21758577e-19 2.127811144e-19 3.71469319e-19 6.47751551e-19 1.128034507e-18 1.961510577e-18 3.405117549e-18 5.90008566e-18 1.02017224e-17 1.759845696e-17 3.027968858e-17 5.195017479e-17 8.88501694e-17 1.51438561e-16 2.571510893e-16 4.35594064e-16 7.376405089e-16 1.249380041e-15 2.116419005e-15 3.584661734e-15 6.068547099e-15 1.026481525e-14 1.73414309e-14 2.924996736e-14 4.923977645e-14 8.270023461e-14 1.385335267e-13 2.313806672e-13 3.852121225e-13 6.390886847e-13 1.056354629e-12 1.739228956e-12 2.851839789e-12 4.656393312e-12 7.569666987e-12 1.225078931e-11 1.973693776e-11 3.165206781e-11 5.052641766e-11 8.02832692e-11 1.269771235e-10 1.999081829e-10 3.132977628e-10 4.887965464e-10 7.592164738e-10 1.17410983e-09 1.807967936e-09 2.772355266e-09 4.233731608e-09 6.439562065e-09 9.756450742e-09 1.472567063e-08 2.214379777e-08 3.31794846e-08 4.954213681e-08 7.37249705e-08 1.09354438e-07 1.616914672e-07 2.383489724e-07 3.503169205e-07 5.13424042e-07 7.504184931e-07 1.093924611e-06 1.590638029e-06 2.307228805e-06 3.337998425e-06 4.816296935e-06 6.930658218e-06 9.94702816e-06 1.423975824e-05 2.033474866e-05 2.896941101e-05 4.117588774e-05 5.839639232e-05 8.264286439e-05 0.0001167177008 0.0001645185819 0.0002314589848 0.0003250477087 0.0004556867953 0.0006377691834 0.0008911874641 0.00124340613 0.001732305781 0.002410084336 0.003348604896 0.004562245883 0.005968729515 0.007508959978 0.009141181762 0.01083587832 0.01257218793 0.01433530639 0.01611460781 0.01790266662 0.01969431927 0.0214859898 0.02327521938 0.02506033699 0.02684022827 0.02861417272 0.03038172874 0.03214265221 0.03389683865 0.03564428197 0.03738504499 0.0391192382 0.04084700442 0.04256850755 0.04428392414 0.04599343704 0.04769723012 0.04939548396 0.05108837168 0.05277605482 0.05445867879 0.05613636756 0.05780921719 0.05947728774 0.061140593 0.0627990873 0.06445264852 0.06610105619 0.06774396318 0.06938085913 0.0710110234 0.07263348701 0.07424696355 0.0758497494 0.07743961073 0.07901364032 0.08056807637 0.08209807344 0.08359741322 0.08505813971 0.0864700994 0.08782036232 0.08909249367 0.09026563815 0.09131336979 0.09220224816 0.09289000728 0.09332328538 0.09343478066 0.09313969017 0.09233125363 0.09087517996 0.08860268007 0.08530176143 0.08070635535 0.07448274314 0.06621261665 0.055371946 0.04130462555 0.02318961745 0 0 0 0 0 0 0 0 0 0 0 0 0 0 0 0 0 0 0 0 0 0 0 0 0 0 0 0 0 0 0 0 0 0 0 0 0 0 0 0 0 0 0 0 0 0 0 0 0 0 0 0 0 0 0 0 0 0 0 0 0 0 0 0 0 0 0 0 0 0 0 0 0 0 0 0 0 0 0 0 0 0 0 0 0 0 0 0 0 0 0 0 0 0 0 0 0 0 0 0 0 0 0 0 0 0 0 0 0 0 0 0 0 0 0 0 0 0 0 0 0 0 0 0 0 0 0 0 0 0 0 
8.399464522e-24 7.487093445e-22 1.724005019e-21 3.238702811e-21 5.76517152e-21 1.009028566e-20 1.755904931e-20 3.049006463e-20 5.288991552e-20 9.168411722e-20 1.588380503e-19 2.750081692e-19 4.758197448e-19 8.226444388e-19 1.421071541e-18 2.452504099e-18 4.228089273e-18 7.280548158e-18 1.252011845e-17 2.149858029e-17 3.685479662e-17 6.306380608e-17 1.076912079e-16 1.834843927e-16 3.118420638e-16 5.285401851e-16 8.931279761e-16 1.504251463e-15 2.524479049e-15 4.2202375e-15 7.036726141e-15 1.172600915e-14 1.953830327e-14 3.255014254e-14 5.420423846e-14 9.019461887e-14 1.499120682e-13 2.48794169e-13 4.12128054e-13 6.811731894e-13 1.122968199e-12 1.845953462e-12 3.024720103e-12 4.938994325e-12 8.034691771e-12 1.301898155e-11 2.100744339e-11 3.375054082e-11 5.398014868e-11 8.593674502e-11 1.361669322e-10 2.147232045e-10 3.369590022e-10 5.262000688e-10 8.176991306e-10 1.264460534e-09 1.945776332e-09 2.979675302e-09 4.540992718e-09 6.887409167e-09 1.039719633e-08 1.562279284e-08 2.336754741e-08 3.47945912e-08 5.158079965e-08 7.613364596e-08 1.118954369e-07 1.637684915e-07 2.38707072e-07 3.465383547e-07 5.010967817e-07 7.217855449e-07 1.035717947e-06 1.48064285e-06 2.108925934e-06 2.992946538e-06 4.23238383e-06 5.96401252e-06 8.374814714e-06 1.17192535e-05 1.633934784e-05 2.269405328e-05 3.139778027e-05 4.326894168e-05 5.939207984e-05 8.119665495e-05 0.0001105559313 0.0001499095791 0.0002024134442 0.0002721191418 0.0003641842703 0.0004851104353 0.0006429999119 0.0008478111049 0.001111575731 0.001448513453 0.001874937633 0.002408781676 0.003068478682 0.003870782605 0.004826904924 0.005936025545 0.007184034589 0.008551370838 0.01001744597 0.0115629265 0.01317076255 0.01482637941 0.01651744196 0.01823407202 0.01996849793 0.02171467677 0.02346795743 0.02522479368 0.02698250713 0.02873909524 0.0304930782 0.03224337786 0.03398922287 0.03573007445 0.03746556861 0.03919547098 0.04091964121 0.04263800479 0.04435053009 0.04605720912 0.04775804084 0.04945301561 0.0511421001 0.05282522144 0.05450224995 0.05617297929 0.05783710311 0.05949418697 0.06114363424 0.06278464428 0.06441616123 0.06603681085 0.0676448231 0.06923793706 0.07081328622 0.07236734409 0.07389576768 0.07539318212 0.07685296936 0.0782670189 0.07962543558 0.0809161993 0.08212477193 0.08323364747 0.0842218424 0.08506432598 0.0857313934 0.0861879902 0.08639300392 0.08629855029 0.08584929628 0.08498188417 0.08362454954 0.08169706623 0.07911120401 0.07577195688 0.07157989403 0.06643511193 0.06024343155 0.05292570292 0.04443136478 0.03475778056 0.02397735815 0.01227509366 0 0 0 0 0 0 0 0 0 0 0 0 0 0 0 0 0 0 0 0 0 0 0 0 0 0 0 0 0 0 0 0 0 0 0 0 0 0 0 0 0 0 0 0 0 0 0 0 0 0 0 0 0 0 0 0 0 0 0 0 0 0 0 0 0 0 0 0 0 0 0 0 0 0 0 0 0 0 0 0 0 0 0 0 0 0 0 0 0 0 0 0 0 0 0 0 0 0 0 0 0 0 0 0 0 0 0 0 0 0 0 0 0 0 0 0 0 0 0 0 0 0 0 0 0 0 0 0 0 0 0 
1.064027855e-22 9.084797715e-21 2.079522655e-20 3.873757763e-20 6.826637301e-20 1.181769962e-19 2.033040007e-19 3.488903808e-19 5.979983933e-19 1.024106916e-18 1.752522744e-18 2.996735965e-18 5.120061918e-18 8.739981423e-18 1.490441841e-17 2.538891675e-17 4.319644547e-17 7.339578035e-17 1.245237202e-16 2.109227803e-16 3.566246263e-16 6.017761609e-16 1.013227569e-15 1.701896355e-15 2.851098898e-15 4.762521676e-15 7.930370089e-15 1.316019874e-14 2.17580394e-14 3.582920904e-14 5.883783968e-14 9.65400765e-14 1.583415376e-13 2.595930115e-13 4.252946637e-13 6.960507454e-13 1.137599965e-12 1.855995425e-12 3.02165936e-12 4.907295721e-12 7.947308346e-12 1.283038281e-11 2.06428827e-11 3.308960205e-11 5.28315148e-11 8.399932691e-11 1.329694872e-10 2.095295151e-10 3.286171608e-10 5.129000763e-10 7.965790429e-10 1.230961604e-09 1.892582181e-09 2.894963678e-09 4.405556781e-09 6.670000198e-09 1.004667556e-08 1.5055661e-08 2.244771709e-08 3.330069581e-08 4.915529786e-08 7.220138671e-08 1.055367755e-07 1.535223989e-07 2.222679742e-07 3.202928776e-07 4.594211054e-07 6.559873683e-07 9.324545754e-07 1.319572365e-06 1.859243276e-06 2.608309162e-06 3.643527095e-06 5.068073069e-06 7.019994671e-06 9.683131842e-06 1.330113814e-05 1.819536262e-05 2.478749134e-05 3.362745274e-05 4.542163863e-05 6.107533006e-05 8.174410908e-05 0.0001088927402 0.0001443642285 0.0001904592942 0.0002500257297 0.0003265559072 0.0004242889608 0.000548311723 0.0007046492162 0.0009003312754 0.001143416699 0.001442950394 0.001808822855 0.002251496299 0.002781560184 0.003409085047 0.004142764836 0.004988886321 0.00595025938 0.007025415117 0.00820867895 0.009491220826 0.01086230576 0.01231039867 0.01382400778 0.01539210128 0.01700424778 0.01865130606 0.02032545867 0.02202013221 0.02372987606 0.02545022401 0.02717755405 0.02890895549 0.03064210837 0.03237517692 0.03410671722 0.03583559836 0.03756093541 0.03928203262 0.04099833505 0.04270938696 0.04441479519 0.04611419628 0.04780722554 0.04949348722 0.05117252399 0.05284378491 0.05450659038 0.05616009282 0.05780323169 0.05943468154 0.06105279117 0.0626555125 0.06424031708 0.06580409828 0.06734305697 0.06885256842 0.07032703394 0.07175989258 0.07314341633 0.07446845207 0.0757242182 0.07689808459 0.07797533875 0.07893894242 0.07976928517 0.08044394405 0.08093746191 0.08122116097 0.08126301294 0.08102759284 0.08047615005 0.07956683727 0.07825514547 0.07649460081 0.07423778587 0.07143775238 0.06804989373 0.06403433962 0.05935891948 0.05400270929 0.04796012055 0.04124540017 0.03389726958 0.02598322115 0.01760268084 0.008887799425 0 0 0 0 0 0 0 0 0 0 0 0 0 0 0 0 0 0 0 0 0 0 0 0 0 0 0 0 0 0 0 0 0 0 0 0 0 0 0 0 0 0 0 0 0 0 0 0 0 0 0 0 0 0 0 0 0 0 0 0 0 0 0 0 0 0 0 0 0 0 0 0 0 0 0 0 0 0 0 0 0 0 0 0 0 0 0 0 0 0 0 0 0 0 0 0 0 0 0 0 0 0 0 0 0 0 0 0 0 0 0 0 0 0 0 0 0 0 0 0 0 0 0 0 0 0 0 0 0 0 0 
1.213927875e-19 7.410680974e-18 1.631738459e-17 2.877125471e-17 4.746932328e-17 7.645696706e-17 1.219976793e-16 1.93916563e-16 3.07702134e-16 4.878096027e-16 7.728585493e-16 1.223808948e-15 1.936809401e-15 3.063359601e-15 4.841898189e-15 7.647195654e-15 1.206742119e-14 1.902409654e-14 2.995829645e-14 4.711880862e-14 7.400659126e-14 1.160577682e-13 1.816889109e-13 2.838896403e-13 4.4263731e-13 6.885387354e-13 1.068291045e-12 1.652819834e-12 2.549327093e-12 3.919001914e-12 6.010614772e-12 9.211045605e-12 1.411047881e-11 2.160817499e-11 3.307153901e-11 5.057441322e-11 7.725248959e-11 1.178308819e-10 1.794032957e-10 2.725766968e-10 4.131437071e-10 6.245122441e-10 9.41214938e-10 1.413948535e-09 2.116767519e-09 3.157291752e-09 4.691104653e-09 6.941941375e-09 1.022982757e-08 1.501006882e-08 2.192695906e-08 3.188733602e-08 4.616073956e-08 6.651501898e-08 9.539890148e-08 1.361864111e-07 1.935022762e-07 2.736527692e-07 3.851930002e-07 5.396659855e-07 7.525810423e-07 1.044655461e-06 1.443431592e-06 1.98534248e-06 2.71834143e-06 3.705229571e-06 5.027840888e-06 6.792272234e-06 9.13537591e-06 1.223276334e-05 1.630859853e-05 2.164748684e-05 2.860878381e-05 3.76436564e-05 4.93152165e-05 6.432200632e-05 8.352503521e-05 0.0001079784337 0.0001389635873 0.0001780236866 0.0002269787356 0.0002879702729 0.0003635007099 0.0004564620145 0.0005701561836 0.0007083031685 0.000875031126 0.001074843254 0.00131255522 0.00159319757 0.001921878896 0.00230360837 0.002743081012 0.00324443627 0.003811010414 0.004445115613 0.005147892112 0.005919291116 0.006758247624 0.00766308063 0.00863208793 0.009664141292 0.01075876252 0.01191556135 0.01313368117 0.01441146198 0.01574633301 0.01713465513 0.01857173892 0.02005253329 0.02157185232 0.02312456017 0.02470571258 0.02631065475 0.02793508025 0.02957505731 0.03122702959 0.03288779773 0.03455448715 0.03622450639 0.03789549917 0.03956529257 0.04123184263 0.04289317844 0.04454734479 0.04619234355 0.04782607342 0.04944626753 0.05105042838 0.05263575943 0.05419909289 0.05573681302 0.05724477475 0.05871821738 0.06015167343 0.06153887334 0.06287264672 0.06414482197 0.06534612627 0.06646608935 0.06749299052 0.06841431026 0.06921646897 0.06988469022 0.07040304687 0.07075455089 0.07092129605 0.07088466285 0.07062559487 0.07012495575 0.06936397401 0.06832478113 0.06699104432 0.06534869024 0.06338670855 0.06109801488 0.05848034008 0.05553709831 0.0522781685 0.0487205042 0.04488846599 0.04081375108 0.03653477959 0.032095393 0.02754273534 0.02292423605 0.01828371551 0.01365681752 0.00906628096 0.004518052805 0 0 0 0 0 0 0 0 0 0 0 0 0 0 0 0 0 0 0 0 0 0 0 0 0 0 0 0 0 0 0 0 0 0 0 0 0 0 0 0 0 0 0 0 0 0 0 0 0 0 0 0 0 0 0 0 0 0 0 0 0 0 0 0 0 0 0 0 0 0 0 0 0 0 0 0 0 0 0 0 0 0 0 0 0 0 0 0 0 0 0 0 0 0 0 0 0 0 0 0 0 0 0 0 0 0 0 0 0 0 0 0 0 0 0 0 0 0 0 0 0 0 0 0 0 0 0 0 0 0 0 
4.83655827e-18 1.96476183e-16 4.275652311e-16 7.443629941e-16 1.210120777e-15 1.917568768e-15 3.007145575e-15 4.6944884e-15 7.31245427e-15 1.137567333e-14 1.767983471e-14 2.745431817e-14 4.259652981e-14 6.603104915e-14 1.022589266e-13 1.581958413e-13 2.444476859e-13 3.772462652e-13 5.813773563e-13 8.94594362e-13 1.374245708e-12 2.107184447e-12 3.224517529e-12 4.923448647e-12 7.499451069e-12 1.139337848e-11 1.726001543e-11 2.606715176e-11 3.923774315e-11 5.885252832e-11 8.804767212e-11 1.315623634e-10 1.96418783e-10 2.930032953e-10 4.366379368e-10 6.498539486e-10 9.656640494e-10 1.432246162e-09 2.119608397e-09 3.129015976e-09 4.606241364e-09 6.760069067e-09 9.887970685e-09 1.441149349e-08 2.092471278e-08 3.026012655e-08 4.357767054e-08 6.248415927e-08 8.919247955e-08 1.267323499e-07 1.792274913e-07 2.522577153e-07 3.533288134e-07 4.924783065e-07 6.83051162e-07 9.426865692e-07 1.294564801e-06 1.768972074e-06 2.405233654e-06 3.254182125e-06 4.381063548e-06 5.869184471e-06 7.824289525e-06 1.037982348e-05 1.370319821e-05 1.800319046e-05 2.353859209e-05 3.062822135e-05 3.966238053e-05 5.111580673e-05 6.556210774e-05 8.368959822e-05 0.0001063183506 0.0001344181467 0.0001691268604 0.0002117686118 0.0002638708267 0.0003271791012 0.0004036685361 0.0004955418273 0.0006051860529 0.0007351867083 0.0008883124708 0.001067481514 0.001275716254 0.001516086878 0.0017916452 0.002105351926 0.00246000219 0.002858156081 0.003302082524 0.003793725818 0.004334703631 0.004926342439 0.005569750215 0.006265915662 0.007015808357 0.007820436203 0.008680801375 0.009597696255 0.010571324 0.01160086575 0.01268444206 0.01381958556 0.0150036595 0.01623408428 0.01750839807 0.01882397626 0.02017794761 0.02156743078 0.02298948165 0.02444106618 0.02591905598 0.02742023939 0.02894134037 0.03047903892 0.03202998813 0.03359082481 0.03515817199 0.0367286326 0.03829877449 0.03986510732 0.04142405229 0.0429719057 0.0445047975 0.04601864594 0.04750910944 0.04897153699 0.05040091818 0.05179183437 0.05313841228 0.05443428185 0.05567254017 0.05684572354 0.05794579023 0.05896411637 0.05989150806 0.06071823264 0.0614340725 0.0620284045 0.06249044254 0.06281005992 0.0629773853 0.06298290766 0.06281769423 0.06247362641 0.06194364718 0.06122201161 0.0603045292 0.05918878449 0.05787431974 0.05636276149 0.05465787117 0.05276549987 0.05069342847 0.04845107846 0.04604908523 0.04349873696 0.04081129751 0.03799725292 0.03506554761 0.03202290764 0.02887338274 0.02561827096 0.02225661233 0.01878643674 0.01520690403 0.01152134645 0.007740963091 0.003888443568 0 0 0 0 0 0 0 0 0 0 0 0 0 0 0 0 0 0 0 0 0 0 0 0 0 0 0 0 0 0 0 0 0 0 0 0 0 0 0 0 0 0 0 0 0 0 0 0 0 0 0 0 0 0 0 0 0 0 0 0 0 0 0 0 0 0 0 0 0 0 0 0 0 0 0 0 0 0 0 0 0 0 0 0 0 0 0 0 0 0 0 0 0 0 0 0 0 0 0 0 0 0 0 0 0 0 0 0 0 0 0 0 0 0 0 0 0 0 0 0 0 0 0 0 0 0 0 0 0 0 0 
6.981544336e-17 2.667048531e-15 5.761755035e-15 9.928830792e-15 1.593945713e-14 2.490137774e-14 3.84592316e-14 5.909023049e-14 9.054681508e-14 1.385228986e-13 2.116579045e-13 3.230489388e-13 4.925247627e-13 7.500583144e-13 1.140875485e-12 1.733082544e-12 2.629019756e-12 3.982105777e-12 6.021737997e-12 9.089956373e-12 1.369519572e-11 2.059072206e-11 3.088850642e-11 4.622363648e-11 6.899028431e-11 1.026782075e-10 1.52349326e-10 2.253077416e-10 3.320343865e-10 4.874858528e-10 7.137614285e-10 1.043405904e-09 1.523421598e-09 2.221531215e-09 3.235004126e-09 4.703027776e-09 6.823945056e-09 9.879119474e-09 1.426575729e-08 2.054173764e-08 2.94864102e-08 4.218245033e-08 6.012525296e-08 8.53680378e-08 1.207128716e-07 1.699602266e-07 2.382325206e-07 3.323903542e-07 4.615638788e-07 6.378258997e-07 8.770379014e-07 1.199905114e-06 1.633281913e-06 2.211774083e-06 2.979689582e-06 3.993394028e-06 5.324130926e-06 7.061368988e-06 9.316695113e-06 1.222853051e-05 1.596729956e-05 2.074150775e-05 2.680456539e-05 3.4462392e-05 4.408178234e-05 5.609947291e-05 7.103180189e-05 8.948479965e-05 0.0001121644836 0.0001398870606 0.0001735886659 0.0002143341921 0.0002633246914 0.0003219027807 0.000391555439 0.0004739135925 0.0005707479208 0.0006839604253 0.000815571472 0.0009676858003 0.001142422992 0.001341933694 0.001568377519 0.00182389472 0.002110579611 0.002430457722 0.002785468482 0.003177454619 0.003608158384 0.004079223097 0.004592196452 0.005148529783 0.005749565601 0.006396505117 0.007090349376 0.007831813745 0.008621227185 0.009458445388 0.0103428273 0.01127333706 0.01224881095 0.0132683154 0.01433120406 0.01543675925 0.01658391865 0.01777117477 0.01899659618 0.02025762643 0.02155132452 0.02287463582 0.02422443915 0.02559756805 0.02699081215 0.02840090623 0.02982451273 0.03125820182 0.0326984313 0.03414152763 0.03558366812 0.03702086452 0.0384489475 0.03986355215 0.04126010427 0.04263380791 0.04397963437 0.04529231357 0.04656632845 0.04779591339 0.04897505789 0.05009751628 0.05115682496 0.05214632784 0.05305921102 0.05388854746 0.05462735176 0.05526864536 0.05580553139 0.05623127838 0.05653941093 0.05672380514 0.05677903709 0.05670092237 0.05648598246 0.05613146478 0.05563537528 0.05499648757 0.05421432558 0.0532891181 0.05222172553 0.05101354171 0.04966637651 0.04818232903 0.04656366434 0.0448127114 0.0429318025 0.04092327717 0.03878957351 0.03653342665 0.03415818663 0.03166825364 0.02906960791 0.02637038122 0.02358137932 0.02071642003 0.01779230752 0.0148282303 0.01184437086 0.008859586051 0.005888218189 0.002936523363 0 0 0 0 0 0 0 0 0 0 0 0 0 0 0 0 0 0 0 0 0 0 0 0 0 0 0 0 0 0 0 0 0 0 0 0 0 0 0 0 0 0 0 0 0 0 0 0 0 0 0 0 0 0 0 0 0 0 0 0 0 0 0 0 0 0 0 0 0 0 0 0 0 0 0 0 0 0 0 0 0 0 0 0 0 0 0 0 0 0 0 0 0 0 0 0 0 0 0 0 0 0 0 0 0 0 0 0 0 0 0 0 0 0 0 0 0 0 0 0 0 0 0 0 0 0 0 0 0 0 0 