# vtk DataFile Version 3.0
# pde1d
ASCII
DATASET STRUCTURED_GRID
DIMENSIONS 301 46 1
POINTS 13846 double
-0.227182 0.246575 0 -0.22233 0.246575 0 -0.217481 0.246575 0 -0.212637 0.246575 0 -0.207796 0.246575 0 -0.202961 0.246575 0 -0.198131 0.246575 0 -0.193307 0.246575 0 -0.188491 0.246575 0 -0.183682 0.246575 0 -0.178883 0.246575 0 -0.174093 0.246575 0 -0.169315 0.246575 0 -0.164549 0.246575 0 -0.159797 0.246575 0 -0.155061 0.246575 0 -0.150341 0.246575 0 -0.14564 0.246575 0 -0.140959 0.246575 0 -0.1363 0.246575 0 -0.131666 0.246575 0 -0.127058 0.246575 0 -0.122478 0.246575 0 -0.117928 0.246575 0 -0.113411 0.246575 0 -0.108929 0.246575 0 -0.104483 0.246575 0 -0.100077 0.246575 0 -0.0957123 0.246575 0 -0.0913909 0.246575 0 -0.0871149 0.246575 0 -0.0828863 0.246575 0 -0.0787068 0.246575 0 -0.0745782 0.246575 0 -0.0705019 0.246575 0 -0.0664793 0.246575 0 -0.0625116 0.246575 0 -0.0585999 0.246575 0 -0.054745 0.246575 0 -0.0509476 0.246575 0 -0.0472081 0.246575 0 -0.0435269 0.246575 0 -0.0399041 0.246575 0 -0.0363397 0.246575 0 -0.0328336 0.246575 0 -0.0293854 0.246575 0 -0.0259947 0.246575 0 -0.022661 0.246575 0 -0.0193836 0.246575 0 -0.0161617 0.246575 0 -0.0129945 0.246575 0 -0.00988109 0.246575 0 -0.00682049 0.246575 0 -0.00381168 0.246575 0 -0.00085359 0.246575 0 0.00205488 0.246575 0 0.00491486 0.246575 0 0.00772749 0.246575 0 0.0104939 0.246575 0 0.0132153 0.246575 0 0.0158928 0.246575 0 0.0185276 0.246575 0 0.0211208 0.246575 0 0.0236735 0.246575 0 0.0261868 0.246575 0 0.0286619 0.246575 0 0.0310999 0.246575 0 0.0335017 0.246575 0 0.0358685 0.246575 0 0.0382011 0.246575 0 0.0405007 0.246575 0 0.0427682 0.246575 0 0.0450045 0.246575 0 0.0472104 0.246575 0 0.049387 0.246575 0 0.051535 0.246575 0 0.0536553 0.246575 0 0.0557488 0.246575 0 0.057816 0.246575 0 0.059858 0.246575 0 0.0618753 0.246575 0 0.0638687 0.246575 0 0.0658388 0.246575 0 0.0677864 0.246575 0 0.0697121 0.246575 0 0.0716165 0.246575 0 0.0735003 0.246575 0 0.0753639 0.246575 0 0.077208 0.246575 0 0.0790332 0.246575 0 0.0808399 0.246575 0 0.0826287 0.246575 0 0.0844 0.246575 0 0.0861544 0.246575 0 0.0878924 0.246575 0 0.0896143 0.246575 0 0.0913206 0.246575 0 0.0930118 0.246575 0 0.0946883 0.246575 0 0.0963503 0.246575 0 0.0979985 0.246575 0 0.099633 0.246575 0 0.101254 0.246575 0 0.102863 0.246575 0 0.104459 0.246575 0 0.106043 0.246575 0 0.107615 0.246575 0 0.109175 0.246575 0 0.110724 0.246575 0 0.112262 0.246575 0 0.11379 0.246575 0 0.115307 0.246575 0 0.116814 0.246575 0 0.118311 0.246575 0 0.119799 0.246575 0 0.121277 0.246575 0 0.122746 0.246575 0 0.124206 0.246575 0 0.125658 0.246575 0 0.127102 0.246575 0 0.128537 0.246575 0 0.129964 0.246575 0 0.131383 0.246575 0 0.132795 0.246575 0 0.1342 0.246575 0 0.135597 0.246575 0 0.136988 0.246575 0 0.138371 0.246575 0 0.139749 0.246575 0 0.141119 0.246575 0 0.142484 0.246575 0 0.143842 0.246575 0 0.145195 0.246575 0 0.146541 0.246575 0 0.147882 0.246575 0 0.149218 0.246575 0 0.150549 0.246575 0 0.151874 0.246575 0 0.153194 0.246575 0 0.15451 0.246575 0 0.155821 0.246575 0 0.157127 0.246575 0 0.158429 0.246575 0 0.159726 0.246575 0 0.16102 0.246575 0 0.162309 0.246575 0 0.163595 0.246575 0 0.164877 0.246575 0 0.166155 0.246575 0 0.167429 0.246575 0 0.168701 0.246575 0 0.169968 0.246575 0 0.171233 0.246575 0 0.172495 0.246575 0 0.173754 0.246575 0 0.17501 0.246575 0 0.176263 0.246575 0 0.177514 0.246575 0 0.178762 0.246575 0 0.180007 0.246575 0 0.181251 0.246575 0 0.182492 0.246575 0 0.183731 0.246575 0 0.184969 0.246575 0 0.186204 0.246575 0 0.187438 0.246575 0 0.18867 0.246575 0 0.1899 0.246575 0 0.191129 0.246575 0 0.192356 0.246575 0 0.193583 0.246575 0 0.194808 0.246575 0 0.196032 0.246575 0 0.197255 0.246575 0 0.198477 0.246575 0 0.199698 0.246575 0 0.200919 0.246575 0 0.202138 0.246575 0 0.203358 0.246575 0 0.204577 0.246575 0 0.205796 0.246575 0 0.207014 0.246575 0 0.208232 0.246575 0 0.209451 0.246575 0 0.210669 0.246575 0 0.211887 0.246575 0 0.213105 0.246575 0 0.214323 0.246575 0 0.215542 0.246575 0 0.216761 0.246575 0 0.217981 0.246575 0 0.219201 0.246575 0 0.220422 0.246575 0 0.221644 0.246575 0 0.222866 0.246575 0 0.22409 0.246575 0 0.225315 0.246575 0 0.226541 0.246575 0 0.227769 0.246575 0 0.228998 0.246575 0 0.230228 0.246575 0 0.23146 0.246575 0 0.232694 0.246575 0 0.23393 0.246575 0 0.235167 0.246575 0 0.236407 0.246575 0 0.237649 0.246575 0 0.238893 0.246575 0 0.24014 0.246575 0 0.241389 0.246575 0 0.242641 0.246575 0 0.243895 0.246575 0 0.245153 0.246575 0 0.246413 0.246575 0 0.247677 0.246575 0 0.248944 0.246575 0 0.250214 0.246575 0 0.251488 0.246575 0 0.252765 0.246575 0 0.254046 0.246575 0 0.255331 0.246575 0 0.25662 0.246575 0 0.257914 0.246575 0 0.259211 0.246575 0 0.260513 0.246575 0 0.261819 0.246575 0 0.263131 0.246575 0 0.264447 0.246575 0 0.265768 0.246575 0 0.267094 0.246575 0 0.268426 0.246575 0 0.269763 0.246575 0 0.271106 0.246575 0 0.272455 0.246575 0 0.27381 0.246575 0 0.275171 0.246575 0 0.276538 0.246575 0 0.277912 0.246575 0 0.279293 0.246575 0 0.28068 0.246575 0 0.282075 0.246575 0 0.283477 0.246575 0 0.284887 0.246575 0 0.286304 0.246575 0 0.287729 0.246575 0 0.289163 0.246575 0 0.290604 0.246575 0 0.292055 0.246575 0 0.293514 0.246575 0 0.294983 0.246575 0 0.296461 0.246575 0 0.297948 0.246575 0 0.299445 0.246575 0 0.300953 0.246575 0 0.302471 0.246575 0 0.304 0.246575 0 0.305539 0.246575 0 0.30709 0.246575 0 0.308653 0.246575 0 0.310227 0.246575 0 0.311814 0.246575 0 0.313414 0.246575 0 0.315026 0.246575 0 0.316652 0.246575 0 0.318292 0.246575 0 0.319945 0.246575 0 0.321613 0.246575 0 0.323296 0.246575 0 0.324994 0.246575 0 0.326708 0.246575 0 0.328438 0.246575 0 0.330185 0.246575 0 0.331949 0.246575 0 0.33373 0.246575 0 0.33553 0.246575 0 0.337348 0.246575 0 0.339186 0.246575 0 0.341043 0.246575 0 0.34292 0.246575 0 0.344818 0.246575 0 0.346738 0.246575 0 0.34868 0.246575 0 0.350645 0.246575 0 0.352633 0.246575 0 0.354646 0.246575 0 0.356683 0.246575 0 0.358746 0.246575 0 0.360835 0.246575 0 0.362952 0.246575 0 0.365096 0.246575 0 0.367269 0.246575 0 0.369472 0.246575 0 0.371706 0.246575 0 0.373971 0.246575 0 0.376269 0.246575 0 0.3786 0.246575 0 0.380966 0.246575 0 0.383366 0.246575 0 0.385804 0.246575 0 0.388279 0.246575 0 0.390792 0.246575 0 
[...]
POINT_DATA 13846
SCALARS Op_Q0_Npv double
LOOKUP_TABLE default
0 0 0 0 0 0 0 0 0 0 0 0 0 0 0 0 0 0 0 0 0 0 0 0 0 0 0 0 0 0 0 0 0 0 0 0 0 0 0 0 0 0 0 0 0 0 0 0 0 0 0 0 0 0 0 0 0 0 0 0 0 0 0 0 0 0 0 0 0 0 0 0 0 0 0 0 0 0 0 0 0 0 0 0 0 0 0 0 0 1.23906642e-05 0.00119723413 0.003138294947 0.005063871352 0.006974395467 0.008870287098 0.01075195413 0.0126197929 0.0144741886 0.0163155156 0.01814413786 0.01996040925 0.0217646739 0.02355726655 0.02533851286 0.02710872972 0.0288682256 0.0306173008 0.03235624774 0.03408535128 0.03580488897 0.03751513129 0.03921634194 0.04090877806 0.04259269048 0.04426832394 0.04593591731 0.04759570382 0.04924791124 0.05089276211 0.0525304739 0.05416125922 0.05578532598 0.05740287759 0.0590141131 0.06061922737 0.06221841123 0.06381185164 0.0653997318 0.06698223135 0.06855952643 0.0701317899 0.07169919137 0.07326189742 0.07482007164 0.07637387481 0.07792346495 0.07946899747 0.08101062527 0.08254849884 0.08408276634 0.08561357373 0.08714106483 0.08866538143 0.09018666338 0.09170504866 0.09322067348 0.09473367235 0.09624417816 0.09775232228 0.0992582346 0.1007620436 0.1022638765 0.1037638592 0.1052621165 0.106758772 0.1082539483 0.1097477671 0.111240349 0.1127318139 0.1142222808 0.1157118681 0.1172006934 0.1186888738 0.1201765257 0.1216637651 0.1231507075 0.1246374681 0.1261241617 0.1276109029 0.129097806 0.1305849851 0.1320725542 0.1335606275 0.1350493188 0.1365387422 0.1380290119 0.139520242 0.1410125472 0.1425060422 0.144000842 0.1454970622 0 0 0 0 0 0 0 0 0 0 0 0 0 0 0 0 0 0 0 0 0 0 0 0 0 0 0 0 0 0 0 0 0 0 0 0 0 0 0 0 0 0 0 0 0 0 0 0 0 0 0 0 0 0 0 0 0 0 0 0 0 0 0 0 0 0 0 0 0 0 0 0 0 0 0 0 0 0 0 0 0 0 0 0 0 0 0 0 0 0 0 0 0 0 0 0 0 0 0 0 0 0 0 0 0 0 0 0 0 0 0 0 0 0 0 0 0 0 0 0 
1.130858079e-26 1.887216196e-24 4.603831116e-24 9.365213065e-24 1.82773543e-23 3.527272268e-23 6.783020305e-23 1.302331432e-22 2.497643712e-22 4.784815492e-22 9.155627925e-22 1.749619547e-21 3.338620088e-21 6.36043785e-21 1.209556991e-20 2.295628951e-20 4.347342775e-20 8.214272956e-20 1.552042401e-19 2.936077837e-19 5.561998533e-19 1.054934423e-18 2.002808021e-18 3.804899403e-18 7.231002733e-18 1.374233264e-17 2.610833499e-17 4.956797982e-17 9.400926511e-17 1.780452385e-16 3.366071329e-16 6.350295354e-16 1.195059061e-15 2.242646743e-15 4.195318328e-15 7.821038175e-15 1.452545086e-14 2.686823488e-14 4.948579121e-14 9.072999739e-14 1.655607444e-13 3.00619561e-13 5.430728582e-13 9.759280698e-13 1.744392864e-12 3.100953809e-12 5.481986137e-12 9.63714301e-12 1.684654898e-11 2.928288005e-11 5.061323443e-11 8.69893824e-11 1.486730087e-10 2.526850611e-10 4.271018546e-10 7.179845826e-10 1.200498781e-09 1.996667678e-09 3.303579014e-09 5.437988445e-09 8.906527086e-09 1.451571946e-08 2.354364325e-08 3.800665117e-08 6.107212753e-08 9.769474503e-08 1.555935477e-07 2.467398804e-07 3.89506688e-07 6.120160199e-07 9.571826548e-07 1.490213065e-06 2.309777683e-06 3.564594495e-06 5.477958344e-06 8.383900222e-06 1.278031676e-05 1.940678866e-05 2.935821451e-05 4.425025702e-05 6.645954369e-05 9.947144507e-05 0.0001483822815 0.000220622683 0.0003269969269 0.0004831727331 0.000711811856 0.001045610357 0.001531627702 0.002237438356 0.003258060905 0.004562419854 0.00605407319 0.00766831104 0.009361218982 0.01110329269 0.01287477627 0.01466242278 0.01645734843 0.01825360526 0.02004722762 0.02183559278 0.02361699034 0.02539033133 0.02715495075 0.02891047328 0.0306567215 0.03239365306 0.0341213174 0.03583982611 0.03754933227 0.0392500163 0.04094207611 0.04262572025 0.04430116317 0.04596862201 0.04762831429 0.04928045637 0.05092526242 0.05256294369 0.05419370808 0.05581775977 0.05743529907 0.05904652227 0.06065162158 0.06225078501 0.06384419633 0.06543203494 0.06701447579 0.06859168918 0.07016384043 0.07173108955 0.07329359067 0.07485149137 0.07640493173 0.07795404313 0.07949894661 0.08103975088 0.08257654962 0.08410941805 0.08563840866 0.08716354555 0.08868481741 0.09020216853 0.09171548737 0.09322459211 0.09472921243 0.09622896635 0.09772333115 0.09921160664 0.1006928689 0.102165912 0.1036291748 0.1050806493 0.1065177645 0.1079372422 0.1093349151 0.1107054992 0.1120423088 0.1133369003 0.1145786258 0.1157540759 0.1168463831 0.1178343521 0.1186913741 0.1193840726 0.1198706138 0.1200986019 0.1200024548 0.1195001358 0.1184890839 0.1168411477 0.114396281 0.1109546996 0.1062671255 0.1000226569 0.09183368805 0.08121716513 0.06757129391 0.05014659867 0.02800996887 0 0 0 0 0 0 0 0 0 0 0 0 0 0 0 0 0 0 0 0 0 0 0 0 0 0 0 0 0 0 0 0 0 0 0 0 0 0 0 0 0 0 0 0 0 0 0 0 0 0 0 0 0 0 0 0 0 0 0 0 0 0 0 0 0 0 0 0 0 0 0 0 0 0 0 0 0 0 0 0 0 0 0 0 0 0 0 0 0 0 0 0 0 0 0 0 0 0 0 0 0 0 0 0 0 0 0 0 0 0 0 0 0 0 0 0 0 0 0 0 
2.928882964e-25 4.697124414e-23 1.13736089e-22 2.289746065e-22 4.415506356e-22 8.413275417e-22 1.596741717e-21 3.024897794e-21 5.722857655e-21 1.081344567e-20 2.040462678e-20 3.844599586e-20 7.232134852e-20 1.35801076e-19 2.544975299e-19 4.759092427e-19 8.878420089e-19 1.652322849e-18 3.0742241e-18 5.725037797e-18 1.067313313e-17 1.991628488e-17 3.718904927e-17 6.946756114e-17 1.297686571e-16 2.42344161e-16 4.522928556e-16 8.432904571e-16 1.570176452e-15 2.918609371e-15 5.413801515e-15 1.001778311e-14 1.848548029e-14 3.400404591e-14 6.23343364e-14 1.13837002e-13 2.070468777e-13 3.749392781e-13 6.758446979e-13 1.212334991e-12 2.163684161e-12 3.841282387e-12 6.782586794e-12 1.19093137e-11 2.079196468e-11 3.608911761e-11 6.227194158e-11 1.068109754e-10 1.821069489e-10 3.086080657e-10 5.19827129e-10 8.703213132e-10 1.448351635e-09 2.395808025e-09 3.939379301e-09 6.439010351e-09 1.046277068e-08 1.690182662e-08 2.714593773e-08 4.334974435e-08 6.883443099e-08 1.086900333e-07 1.70673336e-07 2.665386061e-07 4.139982531e-07 6.395945544e-07 9.828806733e-07 1.502430814e-06 2.283880081e-06 3.451916129e-06 5.187201446e-06 7.749781174e-06 1.151148973e-05 1.700042785e-05 2.496144024e-05 3.643751711e-05 5.287812256e-05 7.628150369e-05 0.0001093788338 0.0001558681832 0.0002207050977 0.0003104528447 0.0004336873051 0.000601436096 0.0008276042415 0.001129292495 0.001526838549 0.002043289656 0.002702823378 0.003527335281 0.004529955091 0.005703814321 0.007026481808 0.008470978714 0.01001067184 0.01162222781 0.01328642312 0.01498794218 0.01671486227 0.01845805984 0.02021064755 0.02196748635 0.02372478317 0.02547976959 0.02723045066 0.02897541136 0.03071366926 0.03244456306 0.03416766896 0.03588273804 0.03758964965 0.03928837676 0.04097896025 0.04266148991 0.04433609031 0.04600291044 0.047662116 0.04931388368 0.05095839699 0.05259584307 0.05422641032 0.0558502866 0.05746765776 0.05907870646 0.06068361111 0.06228254484 0.06387567446 0.06546315931 0.06704515022 0.06862178789 0.07019320088 0.07175950327 0.0733207918 0.0748771422 0.07642860472 0.07797519852 0.07951690481 0.08105365823 0.08258533636 0.08411174671 0.08563261076 0.08714754449 0.08865603449 0.09015740887 0.09165080195 0.09313511133 0.09460894604 0.09607056394 0.09751779642 0.09894795807 0.1003577387 0.1017430745 0.1030989952 0.1044194433 0.1056970607 0.1069229393 0.1080863289 0.1091742998 0.1101713533 0.1110589765 0.1118151387 0.1124137263 0.1128239192 0.1130095123 0.1129281955 0.1125308105 0.1117606189 0.1105526326 0.1088330758 0.1065190888 0.1035188204 0.09973211493 0.09505207786 0.0893679035 0.08256948452 0.07455449703 0.06523888658 0.05457198121 0.0425578494 0.02928503074 0.01496742741 0 0 0 0 0 0 0 0 0 0 0 0 0 0 0 0 0 0 0 0 0 0 0 0 0 0 0 0 0 0 0 0 0 0 0 0 0 0 0 0 0 0 0 0 0 0 0 0 0 0 0 0 0 0 0 0 0 0 0 0 0 0 0 0 0 0 0 0 0 0 0 0 0 0 0 0 0 0 0 0 0 0 0 0 0 0 0 0 0 0 0 0 0 0 0 0 0 0 0 0 0 0 0 0 0 0 0 0 0 0 0 0 0 0 0 0 0 0 0 0 
3.877138829e-24 5.976544371e-22 1.436814122e-21 2.863689854e-21 5.458404717e-21 1.027200276e-20 1.9246612e-20 3.598760462e-20 6.718865597e-20 1.25260599e-19 2.331715013e-19 4.333351249e-19 8.038863934e-19 1.488387318e-18 2.749856061e-18 5.068660469e-18 9.319156146e-18 1.708981548e-17 3.132404331e-17 5.74513227e-17 1.05456025e-16 1.93697678e-16 3.559151357e-16 6.540439217e-16 1.20161614e-15 2.206361448e-15 4.047516778e-15 7.415617954e-15 1.356426023e-14 2.476152297e-14 4.509555593e-14 8.190483393e-14 1.483036354e-13 2.676157529e-13 4.811112632e-13 8.614220489e-13 1.535652339e-12 2.724922528e-12 4.811564181e-12 8.452496001e-12 1.47691473e-11 2.566329914e-11 4.433847204e-11 7.615427252e-11 1.300159501e-10 2.206176767e-10 3.720372038e-10 6.234533653e-10 1.038173062e-09 1.717763398e-09 2.824105543e-09 4.613348416e-09 7.488055603e-09 1.207657243e-08 1.935299749e-08 3.081724623e-08 4.87633962e-08 7.667677568e-08 1.198174155e-07 1.860712619e-07 2.87183193e-07 4.405302648e-07 6.716533242e-07 1.017844562e-06 1.53319295e-06 2.295624746e-06 3.416648804e-06 5.054607121e-06 7.431008263e-06 1.085417065e-05 1.575053328e-05 2.270499321e-05 3.251293537e-05 4.624640652e-05 6.533695984e-05 9.167750447e-05 0.0001277448642 0.0001767434489 0.0002427681661 0.0003309810675 0.0004477908029 0.0006010163026 0.0008000058914 0.001055670264 0.001380373151 0.001787609274 0.002291390092 0.002905263276 0.003640928828 0.004506512813 0.005504768904 0.006631880274 0.007878226613 0.009230405279 0.01067279431 0.0121896881 0.01376649014 0.0153902374 0.01704979245 0.01873582456 0.0204406709 0.02215814055 0.02388330106 0.02561227134 0.02734203311 0.02907026648 0.03079521051 0.03251554755 0.03423030881 0.0359387982 0.03764053151 0.03933518825 0.04102257368 0.04270258907 0.04437520852 0.04604046083 0.0476984154 0.04934917131 0.05099284865 0.05262958176 0.05425951382 0.05588279234 0.05749956547 0.0591099786 0.06071417127 0.06231227405 0.06390440536 0.06549066794 0.06707114601 0.06864590042 0.07021496314 0.07177833098 0.07333595816 0.07488774727 0.07643353855 0.07797309688 0.0795060964 0.08103210193 0.082550547 0.08406070768 0.08556167158 0.0870523013 0.08853119145 0.08999661821 0.0914464806 0.0928782321 0.09428880157 0.09567450225 0.09703092739 0.09835283149 0.09963399581 0.1008670772 0.1020434396 0.1031529677 0.1041838628 0.1051224233 0.1059528093 0.1066567985 0.1072135347 0.107599281 0.1077871849 0.107747071 0.1074452804 0.1068445786 0.1059041633 0.1045798063 0.102824173 0.1005873737 0.097817797 0.09446329754 0.09047280275 0.08579840742 0.08039801787 0.07423858879 0.0672999612 0.05957925078 0.05109563997 0.04189528114 0.03205579893 0.02168956015 0.0109444198 0 0 0 0 0 0 0 0 0 0 0 0 0 0 0 0 0 0 0 0 0 0 0 0 0 0 0 0 0 0 0 0 0 0 0 0 0 0 0 0 0 0 0 0 0 0 0 0 0 0 0 0 0 0 0 0 0 0 0 0 0 0 0 0 0 0 0 0 0 0 0 0 0 0 0 0 0 0 0 0 0 0 0 0 0 0 0 0 0 0 0 0 0 0 0 0 0 0 0 0 0 0 0 0 0 0 0 0 0 0 0 0 0 0 0 0 0 0 0 0 
6.242840918e-21 6.937809555e-19 1.587274322e-18 2.950112535e-18 5.183078103e-18 8.941000038e-18 1.532243991e-17 2.618632966e-17 4.468487894e-17 7.616185415e-17 1.296653293e-16 2.204903076e-16 3.744418849e-16 6.349632079e-16 1.075016355e-15 1.816817994e-15 3.064501189e-15 5.15868478e-15 8.680990983e-15 1.461779357e-14 2.463558573e-14 4.155012541e-14 7.011662496e-14 1.183582395e-13 1.997944429e-13 3.371687791e-13 5.686656392e-13 9.582421636e-13 1.612733612e-12 2.710054567e-12 4.545483588e-12 7.607259275e-12 1.269941478e-11 2.114028495e-11 3.508147727e-11 5.801736756e-11 9.559391549e-11 1.568844974e-10 2.563893047e-10 4.1714779e-10 6.755508994e-10 1.088730096e-09 1.745823753e-09 2.78503438e-09 4.419269431e-09 6.974409106e-09 1.094600809e-08 1.708270293e-08 2.650801115e-08 4.08966038e-08 6.272920102e-08 9.565464521e-08 1.450046946e-07 2.185179768e-07 3.273509361e-07 4.874786868e-07 7.21620959e-07 1.061868812e-06 1.553237749e-06 2.258433415e-06 3.264187824e-06 4.68960693e-06 6.697062876e-06 9.506262816e-06 1.34122245e-05 1.880797602e-05 2.621285702e-05 3.630655402e-05 4.996220704e-05 6.829531712e-05 9.271934049e-05 0.0001250054947 0.0001673473615 0.0002224275768 0.0002934823572 0.000384357722 0.0004995491016 0.0006442137397 0.0008241432024 0.001045681927 0.001315577843 0.001640753759 0.002027994843 0.002483559652 0.003012741334 0.003619432331 0.004305778547 0.005072040909 0.005916797421 0.006837583764 0.007831921229 0.008898301761 0.01003592561 0.01124365226 0.01251890222 0.01385777006 0.01525524236 0.01670550007 0.01820227699 0.0197391949 0.02131003617 0.02290894209 0.02453054074 0.02617001541 0.02782312723 0.02948620474 0.0311561117 0.03283020178 0.03450626685 0.03618248349 0.03785736075 0.0395296913 0.0411985067 0.0428630375 0.04452267793 0.04617695509 0.04782550209 0.04946803478 0.05110433129 0.05273421416 0.05435753423 0.05597415598 0.0575839438 0.05918674872 0.06078239515 0.06237066729 0.06395129472 0.06552393799 0.06708818053 0.06864350682 0.07018928149 0.07172472742 0.07324890131 0.07476066621 0.07625866076 0.07774126471 0.07920656061 0.08065229118 0.0820758124 0.08347404191 0.08484340299 0.08617976393 0.08747837331 0.08873379144 0.08993981886 0.09108942293 0.09217466375 0.09318662164 0.0941153282 0.09494970417 0.09567750765 0.09628529709 0.09675841419 0.09708099265 0.09723599974 0.097205318 0.09696987572 0.0965098345 0.09580484325 0.09483436706 0.09357809886 0.09201646009 0.09013119371 0.08790604903 0.08532755178 0.08238584548 0.07907557933 0.07539680872 0.07135585104 0.06696603273 0.0622482359 0.05723113559 0.0519509999 0.0464509117 0.04077926881 0.03498743847 0.02912649488 0.02324307677 0.01737459388 0.011544329 0.005757485408 0 0 0 0 0 0 0 0 0 0 0 0 0 0 0 0 0 0 0 0 0 0 0 0 0 0 0 0 0 0 0 0 0 0 0 0 0 0 0 0 0 0 0 0 0 0 0 0 0 0 0 0 0 0 0 0 0 0 0 0 0 0 0 0 0 0 0 0 0 0 0 0 0 0 0 0 0 0 0 0 0 0 0 0 0 0 0 0 0 0 0 0 0 0 0 0 0 0 0 0 0 0 0 0 0 0 0 0 0 0 0 0 0 0 0 0 0 0 0 0 
1.854705073e-19 1.922668138e-17 4.357676498e-17 7.990230045e-17 1.381094901e-16 2.340024333e-16 3.934957191e-16 6.594747882e-16 1.103066985e-15 1.842189378e-15 3.072036824e-15 5.115082318e-15 8.502842124e-15 1.410915031e-14 2.336661392e-14 3.861679501e-14 6.367434994e-14 1.047472567e-13 1.721810134e-13 2.830666874e-13 4.655151383e-13 7.657375466e-13 1.259615574e-12 2.071559319e-12 3.405149922e-12 5.59275872e-12 9.175584487e-12 1.50322075e-11 2.458411579e-11 4.012265278e-11 6.532634687e-11 1.060748462e-10 1.717218627e-10 2.770735037e-10 4.454427797e-10 7.133337257e-10 1.137574233e-09 1.806099425e-09 2.854133519e-09 4.488289582e-09 7.022185681e-09 1.09286696e-08 1.691579055e-08 2.603642965e-08 3.984521785e-08 6.062129662e-08 9.168192804e-08 1.378203064e-07 2.059115787e-07 3.05742631e-07 4.511487831e-07 6.615337705e-07 9.639096685e-07 1.395594701e-06 2.00775043e-06 2.869973913e-06 4.076198617e-06 5.752196241e-06 8.065006731e-06 1.123465095e-05 1.554849296e-05 2.137860815e-05 2.92024681e-05 3.962716028e-05 5.341720506e-05 7.152579754e-05 9.512897224e-05 0.0001256593685 0.0001648211506 0.0002146286565 0.0002774362416 0.0003559548534 0.0004532562053 0.0005727604015 0.0007182029877 0.0008935781093 0.001103055956 0.001350875149 0.001641214258 0.001978051227 0.002365024637 0.00280531576 0.003301573673 0.003855905102 0.004469943157 0.005144991364 0.00588220887 0.006682760681 0.007547813468 0.008478243025 0.009474002237 0.0105334181 0.01165347287 0.01283058428 0.01406085215 0.01534056256 0.01666624237 0.01803454999 0.0194421722 0.02088576198 0.02236192262 0.02386722819 0.0253982666 0.02695169203 0.02852427682 0.03011295632 0.03171486338 0.03332735129 0.03494800573 0.0365746468 0.03820532309 0.03983829938 0.04147203976 0.04310518745 0.04473654267 0.04636503924 0.04798972073 0.04960971639 0.05122421719 0.05283245203 0.05443366407 0.05602708703 0.05761192133 0.05918730977 0.06075231262 0.06230588171 0.0638468334 0.06537382557 0.06688535677 0.06837972034 0.06985497145 0.07130889666 0.07273898257 0.07414238362 0.07551588947 0.07685589235 0.07815835484 0.0794187789 0.08063217698 0.08179304616 0.08289534657 0.08393248558 0.08489730901 0.08578210149 0.08657859746 0.08727800507 0.0878710448 0.08834800503 0.08869881633 0.08891314634 0.08898051658 0.08889044198 0.08863259349 0.08819698282 0.08757416742 0.08675547241 0.0857332242 0.08450098884 0.08305380587 0.08138840618 0.07950339998 0.07739941909 0.07507919576 0.07254755974 0.06981133523 0.06687912179 0.06376094735 0.06046779077 0.05701097924 0.05340148698 0.04964917944 0.04576207527 0.04174572859 0.03760286737 0.03333345346 0.02893534867 0.02440576525 0.01974362425 0.01495280914 0.0100460289 0.005048519771 0 0 0 0 0 0 0 0 0 0 0 0 0 0 0 0 0 0 0 0 0 0 0 0 0 0 0 0 0 0 0 0 0 0 0 0 0 0 0 0 0 0 0 0 0 0 0 0 0 0 0 0 0 0 0 0 0 0 0 0 0 0 0 0 0 0 0 0 0 0 0 0 0 0 0 0 0 0 0 0 0 0 0 0 0 0 0 0 0 0 0 0 0 0 0 0 0 0 0 0 0 0 0 0 0 0 0 0 0 0 0 0 0 0 0 0 0 0 0 0 
3.027425224e-18 2.776829462e-16 6.239075293e-16 1.130104452e-15 1.924837648e-15 3.208786746e-15 5.304205837e-15 8.733667676e-15 1.43466216e-14 2.352316678e-14 3.850174307e-14 6.29047507e-14 1.025789424e-13 1.669342049e-13 2.710677933e-13 4.391202948e-13 7.095529048e-13 1.143581085e-12 1.841043394e-12 2.963069257e-12 4.768430503e-12 7.672276066e-12 1.233954286e-11 1.98330345e-11 3.184728654e-11 5.107637718e-11 8.178974847e-11 1.3072918e-10 2.08498518e-10 3.317044628e-10 5.262341365e-10 8.322406236e-10 1.311675004e-09 2.059584734e-09 3.220936473e-09 5.015472759e-09 7.774148946e-09 1.199211127e-08 1.840508312e-08 2.809856353e-08 4.266257413e-08 6.44090093e-08 9.667416098e-08 1.442359309e-07 2.138838384e-07 3.151903863e-07 4.615448242e-07 6.715249102e-07 9.706988441e-07 1.393960522e-06 1.988563866e-06 2.817934595e-06 3.966498537e-06 5.545673046e-06 7.701220552e-06 1.062215514e-05 1.455137853e-05 1.979818883e-05 2.67527481e-05 3.59025084e-05 4.785047519e-05 6.333502827e-05 8.325082335e-05 0.0001086700643 0.0001408631762 0.0001813176402 0.0002317534929 0.0002941289209 0.0003706089068 0.0004635745376 0.0005756118654 0.0007094831461 0.0008680879516 0.00105441545 0.001271490385 0.001522316545 0.001809822541 0.002136815178 0.002505945227 0.002919688516 0.003380341779 0.003890027514 0.00445069597 0.005064106916 0.005731771853 0.006454843433 0.007233957962 0.008069072994 0.008959391687 0.009903506369 0.01089986006 0.01194736303 0.01304522664 0.01419234056 0.01538674024 0.01662591551 0.01790701343 0.01922701003 0.02058284496 0.02197150677 0.02339007648 0.02483574349 0.02630580656 0.02779766903 0.02930883364 0.03083689926 0.03237955985 0.033934605 0.03549992096 0.03707349101 0.03865339423 0.04023780211 0.04182497247 0.04341324082 0.04500100894 0.04658673098 0.0481688973 0.04974601631 0.05131659449 0.052879115 0.05443201497 0.05597366172 0.05750232821 0.05901616775 0.06051318828 0.0619912264 0.06344792147 0.06488070483 0.06628683225 0.06766332101 0.06900692648 0.07031412669 0.07158110984 0.07280376526 0.07397767846 0.07509813082 0.07616010467 0.07715829427 0.07808712342 0.07894077008 0.07971319862 0.08039819985 0.08098943902 0.08148051169 0.08186500703 0.08213657786 0.08228901633 0.08231633375 0.0822128426 0.0819732383 0.08159267804 0.0810668534 0.08039205326 0.07956521351 0.07858394984 0.07744657055 0.07615206668 0.07470007791 0.07309083425 0.07132507545 0.06940395247 0.06732891861 0.06510162075 0.06272380515 0.06019725506 0.05752378019 0.0547052793 0.05174389683 0.04864228776 0.0454039992 0.04203395987 0.03853904688 0.03492866958 0.03121527187 0.02741461214 0.02354563849 0.01962974908 0.015689236 0.01174479227 0.007812176635 0.003898573428 0 0 0 0 0 0 0 0 0 0 0 0 0 0 0 0 0 0 0 0 0 0 0 0 0 0 0 0 0 0 0 0 0 0 0 0 0 0 0 0 0 0 0 0 0 0 0 0 0 0 0 0 0 0 0 0 0 0 0 0 0 0 0 0 0 0 0 0 0 0 0 0 0 0 0 0 0 0 0 0 0 0 0 0 0 0 0 0 0 0 0 0 0 0 0 0 0 0 0 0 0 0 0 0 0 0 0 0 0 0 0 0 0 0 0 0 0 0 0 0 