# vtk DataFile Version 3.0
# pde1d
ASCII
DATASET STRUCTURED_GRID
DIMENSIONS 301 49 1
POINTS 14749 double
-0.299256 0.498630 0 -0.293779 0.498630 0 -0.288302 0.498630 0 -0.282827 0.498630 0 -0.277354 0.498630 0 -0.271882 0.498630 0 -0.266413 0.498630 0 -0.260946 0.498630 0 -0.255482 0.498630 0 -0.250021 0.498630 0 -0.244564 0.498630 0 -0.239112 0.498630 0 -0.233665 0.498630 0 -0.228224 0.498630 0 -0.222789 0.498630 0 -0.217363 0.498630 0 -0.211945 0.498630 0 -0.206538 0.498630 0 -0.201143 0.498630 0 -0.19576 0.498630 0 -0.190393 0.498630 0 -0.185042 0.498630 0 -0.17971 0.498630 0 -0.174399 0.498630 0 -0.169111 0.498630 0 -0.16385 0.498630 0 -0.158617 0.498630 0 -0.153415 0.498630 0 -0.148247 0.498630 0 -0.143117 0.498630 0 -0.138027 0.498630 0 -0.132981 0.498630 0 -0.127982 0.498630 0 -0.123032 0.498630 0 -0.118136 0.498630 0 -0.113295 0.498630 0 -0.108513 0.498630 0 -0.103793 0.498630 0 -0.0991367 0.498630 0 -0.0945466 0.498630 0 -0.0900247 0.498630 0 -0.0855729 0.498630 0 -0.0811925 0.498630 0 -0.0768846 0.498630 0 -0.0726503 0.498630 0 -0.0684899 0.498630 0 -0.064404 0.498630 0 -0.0603924 0.498630 0 -0.0564551 0.498630 0 -0.0525915 0.498630 0 -0.048801 0.498630 0 -0.0450828 0.498630 0 -0.0414358 0.498630 0 -0.037859 0.498630 0 -0.034351 0.498630 0 -0.0309104 0.498630 0 -0.0275358 0.498630 0 -0.0242257 0.498630 0 -0.0209784 0.498630 0 -0.0177923 0.498630 0 -0.0146659 0.498630 0 -0.0115973 0.498630 0 -0.00858496 0.498630 0 -0.00562723 0.498630 0 -0.00272244 0.498630 0 0.000131037 0.498630 0 0.00293479 0.498630 0 0.0056904 0.498630 0 0.0083994 0.498630 0 0.0110633 0.498630 0 0.0136835 0.498630 0 0.0162615 0.498630 0 0.0187987 0.498630 0 0.0212964 0.498630 0 0.0237559 0.498630 0 0.0261784 0.498630 0 0.0285652 0.498630 0 0.0309175 0.498630 0 0.0332363 0.498630 0 0.0355228 0.498630 0 0.0377781 0.498630 0 0.0400032 0.498630 0 0.042199 0.498630 0 0.0443665 0.498630 0 0.0465066 0.498630 0 0.0486202 0.498630 0 0.0507082 0.498630 0 0.0527713 0.498630 0 0.0548104 0.498630 0 0.0568262 0.498630 0 0.0588195 0.498630 0 0.060791 0.498630 0 0.0627413 0.498630 0 0.0646712 0.498630 0 0.0665812 0.498630 0 0.068472 0.498630 0 0.0703441 0.498630 0 0.0721982 0.498630 0 0.0740348 0.498630 0 0.0758544 0.498630 0 0.0776575 0.498630 0 0.0794447 0.498630 0 0.0812164 0.498630 0 0.0829731 0.498630 0 0.0847153 0.498630 0 0.0864433 0.498630 0 0.0881577 0.498630 0 0.0898588 0.498630 0 0.0915469 0.498630 0 0.0932226 0.498630 0 0.0948862 0.498630 0 0.096538 0.498630 0 0.0981784 0.498630 0 0.0998078 0.498630 0 0.101426 0.498630 0 0.103035 0.498630 0 0.104633 0.498630 0 0.106221 0.498630 0 0.1078 0.498630 0 0.109369 0.498630 0 0.11093 0.498630 0 0.112482 0.498630 0 0.114026 0.498630 0 0.115561 0.498630 0 0.117089 0.498630 0 0.118609 0.498630 0 0.120122 0.498630 0 0.121627 0.498630 0 0.123126 0.498630 0 0.124618 0.498630 0 0.126103 0.498630 0 0.127583 0.498630 0 0.129056 0.498630 0 0.130523 0.498630 0 0.131985 0.498630 0 0.133441 0.498630 0 0.134892 0.498630 0 0.136338 0.498630 0 0.137779 0.498630 0 0.139216 0.498630 0 0.140648 0.498630 0 0.142076 0.498630 0 0.143499 0.498630 0 0.144919 0.498630 0 0.146335 0.498630 0 0.147747 0.498630 0 0.149155 0.498630 0 0.150561 0.498630 0 0.151963 0.498630 0 0.153362 0.498630 0 0.154759 0.498630 0 0.156152 0.498630 0 0.157544 0.498630 0 0.158933 0.498630 0 0.160319 0.498630 0 0.161704 0.498630 0 0.163087 0.498630 0 0.164467 0.498630 0 0.165847 0.498630 0 0.167224 0.498630 0 0.168601 0.498630 0 0.169976 0.498630 0 0.17135 0.498630 0 0.172723 0.498630 0 0.174096 0.498630 0 0.175468 0.498630 0 0.176839 0.498630 0 0.17821 0.498630 0 0.17958 0.498630 0 0.180951 0.498630 0 0.182322 0.498630 0 0.183692 0.498630 0 0.185064 0.498630 0 0.186435 0.498630 0 0.187808 0.498630 0 0.189181 0.498630 0 0.190555 0.498630 0 0.19193 0.498630 0 0.193307 0.498630 0 0.194684 0.498630 0 0.196064 0.498630 0 0.197444 0.498630 0 0.198827 0.498630 0 0.200212 0.498630 0 0.201598 0.498630 0 0.202987 0.498630 0 0.204378 0.498630 0 0.205771 0.498630 0 0.207167 0.498630 0 0.208566 0.498630 0 0.209967 0.498630 0 0.211372 0.498630 0 0.21278 0.498630 0 0.214191 0.498630 0 0.215606 0.498630 0 0.217024 0.498630 0 0.218446 0.498630 0 0.219872 0.498630 0 0.221302 0.498630 0 0.222737 0.498630 0 0.224176 0.498630 0 0.22562 0.498630 0 0.227068 0.498630 0 0.228522 0.498630 0 0.229981 0.498630 0 0.231445 0.498630 0 0.232914 0.498630 0 0.23439 0.498630 0 0.235871 0.498630 0 0.237359 0.498630 0 0.238853 0.498630 0 0.240353 0.498630 0 0.24186 0.498630 0 0.243375 0.498630 0 0.244896 0.498630 0 0.246425 0.498630 0 0.247962 0.498630 0 0.249507 0.498630 0 0.251059 0.498630 0 0.252621 0.498630 0 0.254191 0.498630 0 0.25577 0.498630 0 0.257358 0.498630 0 0.258956 0.498630 0 0.260563 0.498630 0 0.262181 0.498630 0 0.263809 0.498630 0 0.265448 0.498630 0 0.267098 0.498630 0 0.268759 0.498630 0 0.270432 0.498630 0 0.272117 0.498630 0 0.273815 0.498630 0 0.275526 0.498630 0 0.27725 0.498630 0 0.278987 0.498630 0 0.280739 0.498630 0 0.282505 0.498630 0 0.284286 0.498630 0 0.286082 0.498630 0 0.287895 0.498630 0 0.289723 0.498630 0 0.291569 0.498630 0 0.293432 0.498630 0 0.295313 0.498630 0 0.297213 0.498630 0 0.299131 0.498630 0 0.30107 0.498630 0 0.303029 0.498630 0 0.305008 0.498630 0 0.30701 0.498630 0 0.309034 0.498630 0 0.311081 0.498630 0 0.313151 0.498630 0 0.315247 0.498630 0 0.317368 0.498630 0 0.319515 0.498630 0 0.321689 0.498630 0 0.323892 0.498630 0 0.326123 0.498630 0 0.328385 0.498630 0 0.330677 0.498630 0 0.333002 0.498630 0 0.33536 0.498630 0 0.337752 0.498630 0 0.340179 0.498630 0 0.342643 0.498630 0 0.345145 0.498630 0 0.347686 0.498630 0 0.350268 0.498630 0 0.352892 0.498630 0 0.355558 0.498630 0 0.35827 0.498630 0 0.361028 0.498630 0 0.363833 0.498630 0 0.366688 0.498630 0 0.369594 0.498630 0 0.372553 0.498630 0 0.375565 0.498630 0 0.378634 0.498630 0 0.381759 0.498630 0 0.384944 0.498630 0 0.38819 0.498630 0 0.391498 0.498630 0 0.394871 0.498630 0 0.398308 0.498630 0 0.401813 0.498630 0 0.405387 0.498630 0 0.409029 0.498630 0 0.412743 0.498630 0 0.416529 0.498630 0 0.420388 0.498630 0 0.424319 0.498630 0 0.428325 0.498630 0 0.432405 0.498630 0 0.43656 0.498630 0 0.440788 0.498630 0 0.445089 0.498630 0 0.449463 0.498630 0 0.453908 0.498630 0 0.458423 0.498630 0 
[...]
POINT_DATA 14749
SCALARS Op_Q0_Npv double
LOOKUP_TABLE default
0 0 0 0 0 0 0 0 0 0 0 0 0 0 0 0 0 0 0 0 0 0 0 0 0 0 0 0 0 0 0 0 0 0 0 0 0 0 0 0 0 0 0 0 0 0 0 0 0 0 0 0 0 0 0 0 0 0 0 0 0 0 0 0 0 0 0 0 0 0 0 0 0 0 0 0 0 0 0 0 0 0 0 0 0 0 0 0 0 0 0 0 0 0 0 0 0 0 0 0 0.0007652679874 0.002685596883 0.004605436929 0.006512378338 0.008406833593 0.01028920324 0.01215987639 0.01401923114 0.01586763508 0.01770544566 0.01953301067 0.02135066855 0.02315874887 0.02495757264 0.02674745264 0.02852869384 0.03030159365 0.03206644227 0.03382352299 0.03557311246 0.03731548099 0.03905089283 0.04077960638 0.04250187449 0.04421794467 0.04592805933 0.04763245598 0.04933136751 0.0510250223 0.05271364451 0.0543974542 0.05607666757 0.05775149711 0.05942215177 0.06108883715 0.06275175566 0.06441110663 0.06606708655 0.06771988913 0.0693697055 0.07101672433 0.07266113197 0.07430311256 0.07594284821 0.07758051907 0.07921630349 0.08085037812 0.08248291803 0.08411409684 0.08574408682 0.08737305898 0.08900118324 0.09062862845 0.09225556258 0.09388215276 0.09550856541 0.09713496635 0.09876152087 0.1003883939 0.1020157499 0.1036437534 0.1052725684 0.1069023594 0.1085332904 0.110165526 0.1117992309 0.1134345702 0.1150717094 0.1167108146 0.1183520525 0 0 0 0 0 0 0 0 0 0 0 0 0 0 0 0 0 0 0 0 0 0 0 0 0 0 0 0 0 0 0 0 0 0 0 0 0 0 0 0 0 0 0 0 0 0 0 0 0 0 0 0 0 0 0 0 0 0 0 0 0 0 0 0 0 0 0 0 0 0 0 0 0 0 0 0 0 0 0 0 0 0 0 0 0 0 0 0 0 0 0 0 0 0 0 0 0 0 0 0 0 0 0 0 0 0 0 0 0 0 0 0 0 0 0 0 0 0 0 0 0 0 0 0 0 0 0 0 0 0 0 
3.39139954e-25 3.15672662e-23 7.313701841e-23 1.386011493e-22 2.492971582e-22 4.412809961e-22 7.770275966e-22 1.365671953e-21 2.398301439e-21 4.209616896e-21 7.385667237e-21 1.2951949e-20 2.270146964e-20 3.976618028e-20 6.961082691e-20 1.217585298e-19 2.127810321e-19 3.714691754e-19 6.477513009e-19 1.128034072e-18 1.961509823e-18 3.405116241e-18 5.9000834e-18 1.02017185e-17 1.759845025e-17 3.027967708e-17 5.195015512e-17 8.88501359e-17 1.514385041e-16 2.571509931e-16 4.355939021e-16 7.376402362e-16 1.249379582e-15 2.116418233e-15 3.584660436e-15 6.06854492e-15 1.026481159e-14 1.734142478e-14 2.924995714e-14 4.923975944e-14 8.270020636e-14 1.385334799e-13 2.3138059e-13 3.852119957e-13 6.390884771e-13 1.056354291e-12 1.739228408e-12 2.851838902e-12 4.656391887e-12 7.569664708e-12 1.225078568e-11 1.973693201e-11 3.165205875e-11 5.052640345e-11 8.028324703e-11 1.269770891e-10 1.999081297e-10 3.132976811e-10 4.887964213e-10 7.592162833e-10 1.174109541e-09 1.8079675e-09 2.772354612e-09 4.233730631e-09 6.43956061e-09 9.756448587e-09 1.472566745e-08 2.214379309e-08 3.317947776e-08 4.954212683e-08 7.372495601e-08 1.09354417e-07 1.616914369e-07 2.383489289e-07 3.503168583e-07 5.134239531e-07 7.504183668e-07 1.093924432e-06 1.590637776e-06 2.307228449e-06 3.337997923e-06 4.816296232e-06 6.930657234e-06 9.947026788e-06 1.423975633e-05 2.033474602e-05 2.896940736e-05 4.117588271e-05 5.839638542e-05 8.264285495e-05 0.0001167176879 0.0001645185644 0.000231458961 0.0003250476766 0.0004556867519 0.0006377691251 0.0008911873859 0.001243406025 0.001732305642 0.002410084151 0.003348604651 0.004562245597 0.005968729206 0.007508959656 0.009141181436 0.01083587799 0.01257218761 0.01433530608 0.0161146075 0.01790266632 0.01969431897 0.02148598951 0.0232752191 0.02506033673 0.02684022802 0.02861417247 0.0303817285 0.03214265197 0.03389683842 0.03564428175 0.03738504478 0.039119238 0.04084700423 0.04256850736 0.04428392397 0.04599343687 0.04769722996 0.04939548381 0.05108837153 0.05277605468 0.05445867866 0.05613636743 0.05780921707 0.05947728763 0.06114059289 0.0627990872 0.06445264842 0.0661010561 0.0677439631 0.06938085905 0.07101102332 0.07263348693 0.07424696348 0.07584974934 0.07743961067 0.07901364026 0.08056807632 0.08209807338 0.08359741317 0.08505813966 0.08647009935 0.08782036227 0.08909249361 0.09026563809 0.09131336973 0.09220224808 0.0928900072 0.09332328528 0.09343478055 0.09313969005 0.09233125349 0.0908751798 0.08860267989 0.08530176123 0.08070635513 0.0744827429 0.06621261641 0.05537194578 0.04130462536 0.02318961733 0 0 0 0 0 0 0 0 0 0 0 0 0 0 0 0 0 0 0 0 0 0 0 0 0 0 0 0 0 0 0 0 0 0 0 0 0 0 0 0 0 0 0 0 0 0 0 0 0 0 0 0 0 0 0 0 0 0 0 0 0 0 0 0 0 0 0 0 0 0 0 0 0 0 0 0 0 0 0 0 0 0 0 0 0 0 0 0 0 0 0 0 0 0 0 0 0 0 0 0 0 0 0 0 0 0 0 0 0 0 0 0 0 0 0 0 0 0 0 0 0 0 0 0 0 0 0 0 0 0 0 
8.39946132e-24 7.487090592e-22 1.724004362e-21 3.238701576e-21 5.765169323e-21 1.009028182e-20 1.755904263e-20 3.049005303e-20 5.288989539e-20 9.168408235e-20 1.588379899e-19 2.750080647e-19 4.758195642e-19 8.226441269e-19 1.421071003e-18 2.452503171e-18 4.228087675e-18 7.280545412e-18 1.252011374e-17 2.149857221e-17 3.68547828e-17 6.306378248e-17 1.076911678e-16 1.834843245e-16 3.118419481e-16 5.285399898e-16 8.931276473e-16 1.504250912e-15 2.524478128e-15 4.220235969e-15 7.036723602e-15 1.172600494e-14 1.953829631e-14 3.255013104e-14 5.420421945e-14 9.019458751e-14 1.499120165e-13 2.487940842e-13 4.12127915e-13 6.811729621e-13 1.122967828e-12 1.845952861e-12 3.024719132e-12 4.93899276e-12 8.034689261e-12 1.301897754e-11 2.100743702e-11 3.375053075e-11 5.398013284e-11 8.593672023e-11 1.361668936e-10 2.147231447e-10 3.369589101e-10 5.261999276e-10 8.176989154e-10 1.264460208e-09 1.945775839e-09 2.979674564e-09 4.540991615e-09 6.88740753e-09 1.039719392e-08 1.562278929e-08 2.336754221e-08 3.479458364e-08 5.158078869e-08 7.613363017e-08 1.118954143e-07 1.637684591e-07 2.387070261e-07 3.465382897e-07 5.010966901e-07 7.217854164e-07 1.035717768e-06 1.4806426e-06 2.108925589e-06 2.992946062e-06 4.232383178e-06 5.964011629e-06 8.374813501e-06 1.171925186e-05 1.633934562e-05 2.26940503e-05 3.139777628e-05 4.326893636e-05 5.939207279e-05 8.119664564e-05 0.0001105559191 0.0001499095632 0.0002024134235 0.0002721191152 0.0003641842361 0.0004851103918 0.0006429998569 0.000847811036 0.001111575645 0.001448513347 0.001874937505 0.002408781521 0.003068478499 0.003870782393 0.004826904683 0.00593602528 0.007184034306 0.008551370541 0.01001744566 0.01156292619 0.01317076224 0.01482637911 0.01651744166 0.01823407172 0.01996849764 0.02171467649 0.02346795715 0.02522479342 0.02698250687 0.02873909499 0.03049307796 0.03224337763 0.03398922264 0.03573007423 0.03746556841 0.03919547078 0.04091964102 0.04263800461 0.04435052991 0.04605720895 0.04775804068 0.04945301546 0.05114209995 0.0528252213 0.05450224982 0.05617297917 0.05783710299 0.05949418686 0.06114363413 0.06278464418 0.06441616113 0.06603681075 0.06764482301 0.06923793698 0.07081328613 0.07236734401 0.07389576761 0.07539318205 0.07685296928 0.07826701883 0.07962543551 0.08091619922 0.08212477185 0.08323364739 0.08422184231 0.08506432588 0.08573139329 0.08618799008 0.08639300379 0.08629855014 0.08584929612 0.08498188399 0.08362454935 0.08169706601 0.07911120378 0.07577195664 0.07157989377 0.06643511166 0.06024343129 0.05292570267 0.04443136455 0.03475778037 0.02397735801 0.01227509359 0 0 0 0 0 0 0 0 0 0 0 0 0 0 0 0 0 0 0 0 0 0 0 0 0 0 0 0 0 0 0 0 0 0 0 0 0 0 0 0 0 0 0 0 0 0 0 0 0 0 0 0 0 0 0 0 0 0 0 0 0 0 0 0 0 0 0 0 0 0 0 0 0 0 0 0 0 0 0 0 0 0 0 0 0 0 0 0 0 0 0 0 0 0 0 0 0 0 0 0 0 0 0 0 0 0 0 0 0 0 0 0 0 0 0 0 0 0 0 0 0 0 0 0 0 0 0 0 0 0 0 
1.064027458e-22 9.084794322e-21 2.079521878e-20 3.873756317e-20 6.826634753e-20 1.181769521e-19 2.033039249e-19 3.488902508e-19 5.979981707e-19 1.024106535e-18 1.752522092e-18 2.996734852e-18 5.120060019e-18 8.739978185e-18 1.49044129e-17 2.538890737e-17 4.319642954e-17 7.339575333e-17 1.245236745e-16 2.10922703e-16 3.566244959e-16 6.017759416e-16 1.0132272e-15 1.701895739e-15 2.851097869e-15 4.762519964e-15 7.930367251e-15 1.316019405e-14 2.175803169e-14 3.582919641e-14 5.883781907e-14 9.654004291e-14 1.583414829e-13 2.595929225e-13 4.252945192e-13 6.960505111e-13 1.137599586e-12 1.855994814e-12 3.021658375e-12 4.90729414e-12 7.947305818e-12 1.283037878e-11 2.064287631e-11 3.308959195e-11 5.283149891e-11 8.399930205e-11 1.329694485e-10 2.095294551e-10 3.286170683e-10 5.128999345e-10 7.965788266e-10 1.230961276e-09 1.892581687e-09 2.894962936e-09 4.405555675e-09 6.669998558e-09 1.004667315e-08 1.505565745e-08 2.244771192e-08 3.330068831e-08 4.915528704e-08 7.220137118e-08 1.055367533e-07 1.535223674e-07 2.222679297e-07 3.202928151e-07 4.594210181e-07 6.559872469e-07 9.324544074e-07 1.319572133e-06 1.85924296e-06 2.608308731e-06 3.64352651e-06 5.068072279e-06 7.01999361e-06 9.683130424e-06 1.330113625e-05 1.819536012e-05 2.478748806e-05 3.362744845e-05 4.542163303e-05 6.107532279e-05 8.17440997e-05 0.0001088927282 0.0001443642132 0.0001904592748 0.0002500257052 0.0003265558766 0.0004242889228 0.0005483116761 0.0007046491589 0.0009003312059 0.001143416616 0.001442950294 0.001808822737 0.002251496162 0.002781560025 0.003409084867 0.004142764634 0.004988886098 0.005950259137 0.007025414856 0.008208678676 0.009491220541 0.01086230547 0.01231039838 0.01382400748 0.01539210098 0.01700424749 0.01865130577 0.02032545839 0.02202013193 0.02372987579 0.02545022375 0.02717755379 0.02890895524 0.03064210814 0.03237517669 0.034106717 0.03583559815 0.0375609352 0.03928203242 0.04099833486 0.04270938677 0.04441479502 0.04611419611 0.04780722538 0.04949348706 0.05117252384 0.05284378477 0.05450659025 0.05616009269 0.05780323157 0.05943468142 0.06105279106 0.06265551239 0.06424031698 0.06580409818 0.06734305687 0.06885256833 0.07032703385 0.07175989249 0.07314341623 0.07446845198 0.0757242181 0.07689808449 0.07797533864 0.07893894231 0.07976928505 0.08044394392 0.08093746177 0.08122116082 0.08126301278 0.08102759266 0.08047614987 0.07956683707 0.07825514525 0.07649460058 0.07423778562 0.07143775212 0.06804989346 0.06403433934 0.05935891921 0.05400270902 0.0479601203 0.04124539994 0.03389726938 0.025983221 0.01760268073 0.008887799367 0 0 0 0 0 0 0 0 0 0 0 0 0 0 0 0 0 0 0 0 0 0 0 0 0 0 0 0 0 0 0 0 0 0 0 0 0 0 0 0 0 0 0 0 0 0 0 0 0 0 0 0 0 0 0 0 0 0 0 0 0 0 0 0 0 0 0 0 0 0 0 0 0 0 0 0 0 0 0 0 0 0 0 0 0 0 0 0 0 0 0 0 0 0 0 0 0 0 0 0 0 0 0 0 0 0 0 0 0 0 0 0 0 0 0 0 0 0 0 0 0 0 0 0 0 0 0 0 0 0 0 
1.213927487e-19 7.410678604e-18 1.631737938e-17 2.877124551e-17 4.74693081e-17 7.645694262e-17 1.219976403e-16 1.93916501e-16 3.077020357e-16 4.878094469e-16 7.728583026e-16 1.223808557e-15 1.936808783e-15 3.063358625e-15 4.841896649e-15 7.647193223e-15 1.206741736e-14 1.902409051e-14 2.995828697e-14 4.711879374e-14 7.400656794e-14 1.160577317e-13 1.816888539e-13 2.838895516e-13 4.42637172e-13 6.885385216e-13 1.068290715e-12 1.652819326e-12 2.549326312e-12 3.919000719e-12 6.010612951e-12 9.211042832e-12 1.41104746e-11 2.160816858e-11 3.307152929e-11 5.057439848e-11 7.72524673e-11 1.178308482e-10 1.79403245e-10 2.725766207e-10 4.131435933e-10 6.245120742e-10 9.412146855e-10 1.413948161e-09 2.116766967e-09 3.157290943e-09 4.69110347e-09 6.941939654e-09 1.022982508e-08 1.501006523e-08 2.192695391e-08 3.188732868e-08 4.616072914e-08 6.651500427e-08 9.539888081e-08 1.361863822e-07 1.93502236e-07 2.736527137e-07 3.851929238e-07 5.39665881e-07 7.525809e-07 1.044655268e-06 1.443431333e-06 1.985342132e-06 2.718340966e-06 3.705228955e-06 5.027840075e-06 6.792271166e-06 9.135374515e-06 1.223276152e-05 1.630859619e-05 2.164748382e-05 2.860877994e-05 3.764365148e-05 4.931521027e-05 6.432199848e-05 8.352502539e-05 0.0001079784215 0.0001389635721 0.000178023668 0.0002269787128 0.0002879702451 0.0003635006763 0.0004564619741 0.0005701561354 0.0007083031113 0.0008750310586 0.001074843176 0.001312555129 0.001593197465 0.001921878777 0.002303608236 0.002743080862 0.003244436104 0.003811010233 0.004445115417 0.005147891902 0.005919290893 0.00675824739 0.007663080386 0.008632087678 0.009664141033 0.01075876226 0.01191556108 0.0131336809 0.0144114617 0.01574633274 0.01713465486 0.01857173865 0.02005253302 0.02157185206 0.02312455991 0.02470571232 0.0263106545 0.02793508 0.02957505707 0.03122702936 0.0328877975 0.03455448693 0.03622450618 0.03789549897 0.03956529237 0.04123184244 0.04289317826 0.04454734461 0.04619234338 0.04782607326 0.04944626737 0.05105042822 0.05263575928 0.05419909274 0.05573681288 0.05724477462 0.05871821725 0.0601516733 0.06153887321 0.0628726466 0.06414482184 0.06534612614 0.06646608922 0.06749299038 0.06841431011 0.06921646881 0.06988469006 0.0704030467 0.0707545507 0.07092129586 0.07088466264 0.07062559465 0.07012495552 0.06936397376 0.06832478087 0.06699104406 0.06534868996 0.06338670826 0.06109801458 0.05848033978 0.05553709801 0.05227816821 0.04872050391 0.04488846572 0.04081375082 0.03653477934 0.03209539279 0.02754273515 0.02292423589 0.01828371538 0.01365681742 0.009066280894 0.004518052772 0 0 0 0 0 0 0 0 0 0 0 0 0 0 0 0 0 0 0 0 0 0 0 0 0 0 0 0 0 0 0 0 0 0 0 0 0 0 0 0 0 0 0 0 0 0 0 0 0 0 0 0 0 0 0 0 0 0 0 0 0 0 0 0 0 0 0 0 0 0 0 0 0 0 0 0 0 0 0 0 0 0 0 0 0 0 0 0 0 0 0 0 0 0 0 0 0 0 0 0 0 0 0 0 0 0 0 0 0 0 0 0 0 0 0 0 0 0 0 0 0 0 0 0 0 0 0 0 0 0 0 
4.836556778e-18 1.964761224e-16 4.275650995e-16 7.44362765e-16 1.210120404e-15 1.917568179e-15 3.007144651e-15 4.694486959e-15 7.312452027e-15 1.137566985e-14 1.76798293e-14 2.745430978e-14 4.259651681e-14 6.603102903e-14 1.022588955e-13 1.581957932e-13 2.444476118e-13 3.772461511e-13 5.81377181e-13 8.94594093e-13 1.374245296e-12 2.107183817e-12 3.224516569e-12 4.923447186e-12 7.499448854e-12 1.139337513e-11 1.726001038e-11 2.606714417e-11 3.92377318e-11 5.88525114e-11 8.804764698e-11 1.315623262e-10 1.964187278e-10 2.930032137e-10 4.366378164e-10 6.498537712e-10 9.656637887e-10 1.43224578e-09 2.119607838e-09 3.129015162e-09 4.606240182e-09 6.760067358e-09 9.887968223e-09 1.441148996e-08 2.092470774e-08 3.026011938e-08 4.357766041e-08 6.248414501e-08 8.919245958e-08 1.267323221e-07 1.792274528e-07 2.522576622e-07 3.533287407e-07 4.924782073e-07 6.830510276e-07 9.42686388e-07 1.294564558e-06 1.76897175e-06 2.405233224e-06 3.254181559e-06 4.381062806e-06 5.869183503e-06 7.82428827e-06 1.037982186e-05 1.370319613e-05 1.800318782e-05 2.353858873e-05 3.062821712e-05 3.966237523e-05 5.111580011e-05 6.556209954e-05 8.368958812e-05 0.0001063183382 0.0001344181317 0.0001691268422 0.0002117685898 0.0002638708004 0.0003271790699 0.0004036684992 0.0004955417839 0.0006051860023 0.0007351866497 0.0008883124033 0.001067481436 0.001275716166 0.001516086779 0.001791645089 0.002105351803 0.002460002055 0.002858155933 0.003302082364 0.003793725645 0.004334703446 0.004926342243 0.005569750007 0.006265915444 0.007015808129 0.007820435966 0.00868080113 0.009597696002 0.01057132374 0.01160086549 0.0126844418 0.01381958529 0.01500365923 0.01623408401 0.0175083978 0.01882397599 0.02017794735 0.02156743052 0.0229894814 0.02444106593 0.02591905573 0.02742023914 0.02894134013 0.03047903869 0.0320299879 0.03359082459 0.03515817177 0.03672863239 0.03829877429 0.03986510712 0.0414240521 0.04297190551 0.04450479733 0.04601864577 0.04750910927 0.04897153682 0.05040091802 0.05179183422 0.05313841213 0.0544342817 0.05567254001 0.05684572339 0.05794579008 0.05896411622 0.05989150789 0.06071823247 0.06143407233 0.06202840431 0.06249044235 0.06281005972 0.06297738509 0.06298290743 0.062817694 0.06247362617 0.06194364692 0.06122201134 0.06030452893 0.05918878421 0.05787431946 0.0563627612 0.05465787088 0.05276549958 0.05069342819 0.04845107818 0.04604908496 0.0434987367 0.04081129726 0.03799725268 0.03506554738 0.03202290743 0.02887338255 0.02561827079 0.02225661218 0.01878643661 0.01520690392 0.01152134637 0.007740963034 0.003888443539 0 0 0 0 0 0 0 0 0 0 0 0 0 0 0 0 0 0 0 0 0 0 0 0 0 0 0 0 0 0 0 0 0 0 0 0 0 0 0 0 0 0 0 0 0 0 0 0 0 0 0 0 0 0 0 0 0 0 0 0 0 0 0 0 0 0 0 0 0 0 0 0 0 0 0 0 0 0 0 0 0 0 0 0 0 0 0 0 0 0 0 0 0 0 0 0 0 0 0 0 0 0 0 0 0 0 0 0 0 0 0 0 0 0 0 0 0 0 0 0 0 0 0 0 0 0 0 0 0 0 0 
6.981542251e-17 2.667047738e-15 5.761753323e-15 9.928827844e-15 1.59394524e-14 2.490137036e-14 3.845922022e-14 5.909021302e-14 9.054678835e-14 1.385228578e-13 2.116578422e-13 3.23048844e-13 4.925246183e-13 7.500580951e-13 1.140875152e-12 1.733082039e-12 2.629018993e-12 3.982104625e-12 6.02173626e-12 9.08995376e-12 1.36951918e-11 2.059071619e-11 3.088849765e-11 4.622362342e-11 6.899026491e-11 1.026781788e-10 1.523492836e-10 2.253076794e-10 3.320342954e-10 4.8748572e-10 7.137612356e-10 1.043405624e-09 1.523421194e-09 2.221530631e-09 3.235003285e-09 4.703026567e-09 6.823943323e-09 9.879116997e-09 1.426575376e-08 2.054173264e-08 2.948640312e-08 4.218244037e-08 6.0125239e-08 8.536801831e-08 1.207128446e-07 1.699601892e-07 2.382324693e-07 3.32390284e-07 4.615637833e-07 6.378257706e-07 8.770377279e-07 1.199904882e-06 1.633281604e-06 2.211773676e-06 2.979689047e-06 3.993393329e-06 5.324130018e-06 7.061367816e-06 9.316693609e-06 1.222852859e-05 1.596729713e-05 2.074150469e-05 2.680456154e-05 3.446238721e-05 4.408177641e-05 5.60994656e-05 7.103179295e-05 8.948478877e-05 0.0001121644704 0.0001398870447 0.000173588647 0.0002143341696 0.0002633246649 0.0003219027496 0.0003915554027 0.0004739135505 0.0005707478724 0.0006839603699 0.000815571409 0.000967685729 0.001142422912 0.001341933605 0.00156837742 0.00182389461 0.00211057949 0.00243045759 0.00278546834 0.003177454466 0.003608158219 0.004079222921 0.004592196266 0.005148529586 0.005749565394 0.0063965049 0.007090349149 0.00783181351 0.008621226942 0.009458445138 0.01034282705 0.0112733368 0.01224881068 0.01326831513 0.01433120379 0.01543675898 0.01658391838 0.0177711745 0.01899659591 0.02025762617 0.02155132425 0.02287463556 0.0242244389 0.0255975678 0.0269908119 0.02840090599 0.0298245125 0.03125820159 0.03269843108 0.03414152741 0.03558366791 0.03702086431 0.0384489473 0.03986355195 0.04126010408 0.04263380772 0.04397963419 0.04529231339 0.04656632827 0.04779591322 0.04897505772 0.05009751611 0.0511568248 0.05214632767 0.05305921085 0.05388854728 0.05462735158 0.05526864517 0.0558055312 0.05623127818 0.05653941073 0.05672380492 0.05677903686 0.05670092213 0.05648598222 0.05613146454 0.05563537503 0.05499648731 0.05421432531 0.05328911782 0.05222172526 0.05101354143 0.04966637624 0.04818232875 0.04656366406 0.04481271113 0.04293180224 0.04092327691 0.03878957326 0.03653342641 0.0341581864 0.03166825342 0.0290696077 0.02637038103 0.02358137915 0.02071641987 0.01779230738 0.01482823018 0.01184437077 0.008859585981 0.005888218142 0.002936523339 0 0 0 0 0 0 0 0 0 0 0 0 0 0 0 0 0 0 0 0 0 0 0 0 0 0 0 0 0 0 0 0 0 0 0 0 0 0 0 0 0 0 0 0 0 0 0 0 0 0 0 0 0 0 0 0 0 0 0 0 0 0 0 0 0 0 0 0 0 0 0 0 0 0 0 0 0 0 0 0 0 0 0 0 0 0 0 0 0 0 0 0 0 0 0 0 0 0 0 0 0 0 0 0 0 0 0 0 0 0 0 0 0 0 0 0 0 0 0 0 0 0 0 0 0 0 0 0 0 0 0 