# vtk DataFile Version 3.0
# pde1d
ASCII
DATASET STRUCTURED_GRID
DIMENSIONS 301 49 1
POINTS 14749 double
-0.341496 0.246575 0 -0.33922 0.246575 0 -0.336943 0.246575 0 -0.334666 0.246575 0 -0.33239 0.246575 0 -0.330113 0.246575 0 -0.327837 0.246575 0 -0.32556 0.246575 0 -0.323283 0.246575 0 -0.321007 0.246575 0 -0.31873 0.246575 0 -0.316453 0.246575 0 -0.314177 0.246575 0 -0.3119 0.246575 0 -0.309623 0.246575 0 -0.307347 0.246575 0 -0.30507 0.246575 0 -0.302793 0.246575 0 -0.300517 0.246575 0 -0.29824 0.246575 0 -0.295964 0.246575 0 -0.293687 0.246575 0 -0.29141 0.246575 0 -0.289134 0.246575 0 -0.286857 0.246575 0 -0.28458 0.246575 0 -0.282304 0.246575 0 -0.280027 0.246575 0 -0.27775 0.246575 0 -0.275474 0.246575 0 -0.273197 0.246575 0 -0.27092 0.246575 0 -0.268644 0.246575 0 -0.266367 0.246575 0 -0.264091 0.246575 0 -0.261814 0.246575 0 -0.259537 0.246575 0 -0.257261 0.246575 0 -0.254984 0.246575 0 -0.252707 0.246575 0 -0.250431 0.246575 0 -0.248154 0.246575 0 -0.245877 0.246575 0 -0.243601 0.246575 0 -0.241324 0.246575 0 -0.239047 0.246575 0 -0.236771 0.246575 0 -0.234494 0.246575 0 -0.232218 0.246575 0 -0.229941 0.246575 0 -0.227664 0.246575 0 -0.225388 0.246575 0 -0.223111 0.246575 0 -0.220834 0.246575 0 -0.218558 0.246575 0 -0.216281 0.246575 0 -0.214004 0.246575 0 -0.211728 0.246575 0 -0.209451 0.246575 0 -0.207174 0.246575 0 -0.204898 0.246575 0 -0.202621 0.246575 0 -0.200345 0.246575 0 -0.198068 0.246575 0 -0.195791 0.246575 0 -0.193515 0.246575 0 -0.191238 0.246575 0 -0.188961 0.246575 0 -0.186685 0.246575 0 -0.184408 0.246575 0 -0.182131 0.246575 0 -0.179855 0.246575 0 -0.177578 0.246575 0 -0.175301 0.246575 0 -0.173025 0.246575 0 -0.170748 0.246575 0 -0.168472 0.246575 0 -0.166195 0.246575 0 -0.163918 0.246575 0 -0.161642 0.246575 0 -0.159365 0.246575 0 -0.157088 0.246575 0 -0.154812 0.246575 0 -0.152535 0.246575 0 -0.150258 0.246575 0 -0.147982 0.246575 0 -0.145705 0.246575 0 -0.143428 0.246575 0 -0.141152 0.246575 0 -0.138875 0.246575 0 -0.136599 0.246575 0 -0.134322 0.246575 0 -0.132045 0.246575 0 -0.129769 0.246575 0 -0.127492 0.246575 0 -0.125215 0.246575 0 -0.122939 0.246575 0 -0.120662 0.246575 0 -0.118385 0.246575 0 -0.116109 0.246575 0 -0.113832 0.246575 0 -0.111555 0.246575 0 -0.109279 0.246575 0 -0.107002 0.246575 0 -0.104726 0.246575 0 -0.102449 0.246575 0 -0.100172 0.246575 0 -0.0978956 0.246575 0 -0.095619 0.246575 0 -0.0933423 0.246575 0 -0.0910657 0.246575 0 -0.0887891 0.246575 0 -0.0865124 0.246575 0 -0.0842358 0.246575 0 -0.0819591 0.246575 0 -0.0796825 0.246575 0 -0.0774058 0.246575 0 -0.0751292 0.246575 0 -0.0728526 0.246575 0 -0.0705759 0.246575 0 -0.0682993 0.246575 0 -0.0660226 0.246575 0 -0.063746 0.246575 0 -0.0614693 0.246575 0 -0.0591927 0.246575 0 -0.0569161 0.246575 0 -0.0546394 0.246575 0 -0.0523628 0.246575 0 -0.0500861 0.246575 0 -0.0478095 0.246575 0 -0.0455329 0.246575 0 -0.0432562 0.246575 0 -0.0409796 0.246575 0 -0.0387029 0.246575 0 -0.0364263 0.246575 0 -0.0341496 0.246575 0 -0.031873 0.246575 0 -0.0295964 0.246575 0 -0.0273197 0.246575 0 -0.0250431 0.246575 0 -0.0227664 0.246575 0 -0.0204898 0.246575 0 -0.0182131 0.246575 0 -0.0159365 0.246575 0 -0.0136599 0.246575 0 -0.0113832 0.246575 0 -0.00910657 0.246575 0 -0.00682993 0.246575 0 -0.00455329 0.246575 0 -0.00227664 0.246575 0 0 0.246575 0 0.00227664 0.246575 0 0.00455329 0.246575 0 0.00682993 0.246575 0 0.00910657 0.246575 0 0.0113832 0.246575 0 0.0136599 0.246575 0 0.0159365 0.246575 0 0.0182131 0.246575 0 0.0204898 0.246575 0 0.0227664 0.246575 0 0.0250431 0.246575 0 0.0273197 0.246575 0 0.0295964 0.246575 0 0.031873 0.246575 0 0.0341496 0.246575 0 0.0364263 0.246575 0 0.0387029 0.246575 0 0.0409796 0.246575 0 0.0432562 0.246575 0 0.0455329 0.246575 0 0.0478095 0.246575 0 0.0500861 0.246575 0 0.0523628 0.246575 0 0.0546394 0.246575 0 0.0569161 0.246575 0 0.0591927 0.246575 0 0.0614693 0.246575 0 0.063746 0.246575 0 0.0660226 0.246575 0 0.0682993 0.246575 0 0.0705759 0.246575 0 0.0728526 0.246575 0 0.0751292 0.246575 0 0.0774058 0.246575 0 0.0796825 0.246575 0 0.0819591 0.246575 0 0.0842358 0.246575 0 0.0865124 0.246575 0 0.0887891 0.246575 0 0.0910657 0.246575 0 0.0933423 0.246575 0 0.095619 0.246575 0 0.0978956 0.246575 0 0.100172 0.246575 0 0.102449 0.246575 0 0.104726 0.246575 0 0.107002 0.246575 0 0.109279 0.246575 0 0.111555 0.246575 0 0.113832 0.246575 0 0.116109 0.246575 0 0.118385 0.246575 0 0.120662 0.246575 0 0.122939 0.246575 0 0.125215 0.246575 0 0.127492 0.246575 0 0.129769 0.246575 0 0.132045 0.246575 0 0.134322 0.246575 0 0.136599 0.246575 0 0.138875 0.246575 0 0.141152 0.246575 0 0.143428 0.246575 0 0.145705 0.246575 0 0.147982 0.246575 0 0.150258 0.246575 0 0.152535 0.246575 0 0.154812 0.246575 0 0.157088 0.246575 0 0.159365 0.246575 0 0.161642 0.246575 0 0.163918 0.246575 0 0.166195 0.246575 0 0.168472 0.246575 0 0.170748 0.246575 0 0.173025 0.246575 0 0.175301 0.246575 0 0.177578 0.246575 0 0.179855 0.246575 0 0.182131 0.246575 0 0.184408 0.246575 0 0.186685 0.246575 0 0.188961 0.246575 0 0.191238 0.246575 0 0.193515 0.246575 0 0.195791 0.246575 0 0.198068 0.246575 0 0.200345 0.246575 0 0.202621 0.246575 0 0.204898 0.246575 0 0.207174 0.246575 0 0.209451 0.246575 0 0.211728 0.246575 0 0.214004 0.246575 0 0.216281 0.246575 0 0.218558 0.246575 0 0.220834 0.246575 0 0.223111 0.246575 0 0.225388 0.246575 0 0.227664 0.246575 0 0.229941 0.246575 0 0.232218 0.246575 0 0.234494 0.246575 0 0.236771 0.246575 0 0.239047 0.246575 0 0.241324 0.246575 0 0.243601 0.246575 0 0.245877 0.246575 0 0.248154 0.246575 0 0.250431 0.246575 0 0.252707 0.246575 0 0.254984 0.246575 0 0.257261 0.246575 0 0.259537 0.246575 0 0.261814 0.246575 0 0.264091 0.246575 0 0.266367 0.246575 0 0.268644 0.246575 0 0.27092 0.246575 0 0.273197 0.246575 0 0.275474 0.246575 0 0.27775 0.246575 0 0.280027 0.246575 0 0.282304 0.246575 0 0.28458 0.246575 0 0.286857 0.246575 0 0.289134 0.246575 0 0.29141 0.246575 0 0.293687 0.246575 0 0.295964 0.246575 0 0.29824 0.246575 0 0.300517 0.246575 0 0.302793 0.246575 0 0.30507 0.246575 0 0.307347 0.246575 0 0.309623 0.246575 0 0.3119 0.246575 0 0.314177 0.246575 0 0.316453 0.246575 0 0.31873 0.246575 0 0.321007 0.246575 0 0.323283 0.246575 0 0.32556 0.246575 0 0.327837 0.246575 0 0.330113 0.246575 0 0.33239 0.246575 0 0.334666 0.246575 0 0.336943 0.246575 0 0.33922 0.246575 0 0.341496 0.246575 0 
[...]
POINT_DATA 14749
SCALARS Npv_Q0_Npv double
LOOKUP_TABLE default
0 0 0 0 0 0 0 0 0 0 0 0 0 0 0 0 0 0 0 0 0 0 0 0 0 0 0 0 0 0 0 0 0 0 0 0 0 0 0 0 0 0 0 0 0 0 0 0 0 0 0 0 0 0 0 0 0 0 0 0 0 0 0 0 0 0 0 0 0 0 0 0 0 0 0 0 0 0 0 0 0 0 0 0 0 0 0 0 0 0 0 0 0 0 0 0 0 0 0 0 0 0 0 0 0 0 0 0 0 0 0 0 0 0 0 0 0 0 0 0 0 0 0 0 0 0 0 0 0 0 0 0 0 0 0 0 0 0 0 0 0 0 0 0 0 0 0 0 0 0.0002065780201 0.002241008921 0.004710537251 0.007185694219 0.009666492653 0.01215294541 0.01464506539 0.01714286549 0.01964635867 0.0221555579 0.02467047618 0.02719112657 0.0297175221 0.03224967589 0.03478760106 0.03733131075 0.03988081816 0.0424361365 0.04499727902 0.04756425898 0.0501370897 0.0527157845 0.05530035676 0.05789081987 0.06048718725 0.06308947237 0.06569768871 0.06831184979 0.07093196917 0.07355806041 0.07619013714 0.07882821298 0.08147230163 0.08412241678 0.08677857217 0.08944078156 0.09210905875 0.09478341758 0.09746387191 0.1001504356 0.1028431226 0.1055419469 0.1082469225 0.1109580633 0.1136753835 0.1163988971 0.1191286182 0.1218645609 0.1246067396 0.1273551683 0.1301098613 0.132870833 0.1356380975 0.1384116693 0.1411915627 0.1439777921 0.1467703721 0.1495693169 0.1523746412 0.1551863596 0.1580044864 0.1608290365 0.1636600244 0.1664974648 0.1693413723 0.1721917618 0.175048648 0.1779120458 0.1807819699 0.1836584352 0.1865414567 0.1894310492 0.1923272278 0.1952300075 0.1981394033 0.2010554304 0.2039781037 0.2069074385 0.2098434499 0.2127861532 0.2157355636 0.2186916964 0.221654567 0.2246241906 0.2276005827 0.2305837587 0.2335737341 0.2365705243 0.2395741449 0.2425846115 0.2456019396 0.2486261449 0.2516572431 0.2546952499 0.2577401811 0.2607920523 0.2638508795 0.2669166785 0.2699894652 0.2730692554 0.2761560653 0.2792499107 0.2823508077 0.2854587724 0.2885738208 0.2916959692 0.2948252337 0.2979616306 0.301105176 0.3042558863 0.3074137779 0.310578867 0.3137511701 0.3169307036 0.320117484 0.3233115279 0.3265128517 0.3297214721 0.3329374057 0.3361606692 0.3393912793 0.3426292526 0.3458746061 0.3491273565 0.3523875208 0.3556551156 0.3589301581 0.3622126652 0.3655026539 0.3688001413 0.3721051444 0.3754176804 0.3787377665 0.3820654198 0.3854006576 0.3887434973 0.392093956 0.3954520512 0.3988178003 0.4021912208 0.4055723301 0.4089611457 0.4123576852 0.4157619663 0.4191740065 0.4225938235 0.4260214351 0.4294568591 0.4329001132 0.4363512153 0.4398101832 0.443277035 
0 6.047344651e-27 1.270030205e-26 2.061135083e-26 3.055758116e-26 4.351702945e-26 6.076485287e-26 8.399880106e-26 1.155063313e-25 1.58389817e-25 2.168720216e-25 2.967119176e-25 4.057717952e-25 5.547915074e-25 7.584460947e-25 1.036790942e-24 1.417236783e-24 1.93724904e-24 2.648037337e-24 3.619598503e-24 4.947609702e-24 6.762850509e-24 9.244081787e-24 1.263564966e-23 1.727154817e-23 2.360831026e-23 3.226996616e-23 4.410949643e-23 6.029283164e-23 8.241367058e-23 1.126504242e-22 1.539807406e-22 2.104747372e-22 2.87695817e-22 3.932485399e-22 5.375275028e-22 7.347409766e-22 1.004310105e-21 1.372781454e-21 1.876441263e-21 2.564888826e-21 3.505920927e-21 4.792208309e-21 6.550421688e-21 8.953706e-21 1.223873133e-20 1.672899965e-20 2.286670259e-20 3.125626745e-20 4.27239442e-20 5.84168194e-20 7.992963731e-20 1.094649336e-19 1.500692526e-19 2.059623407e-19 2.829965436e-19 3.892987473e-19 5.361685569e-19 7.393366019e-19 1.020729617e-18 1.410949576e-18 1.952760248e-18 2.705996904e-18 3.75448914e-18 5.215835098e-18 7.255219859e-18 1.010497743e-17 1.4092321e-17 1.967870556e-17 2.751577889e-17 3.852502159e-17 5.401126311e-17 7.58247105e-17 1.065925489e-16 1.500504579e-16 2.115178302e-16 2.985799673e-16 4.220688301e-16 5.974750727e-16 8.469840304e-16 1.202415763e-15 1.709476984e-15 2.433919588e-15 3.470474379e-15 4.955830591e-15 7.087522737e-15 1.015145656e-14 1.456208915e-14 2.092117436e-14 3.010378962e-14 4.338451847e-14 6.262283566e-14 9.053592119e-14 1.311008043e-13 1.901481433e-13 2.762404471e-13 4.019732188e-13 5.859060059e-13 8.554332956e-13 1.251060165e-12 1.832781317e-12 2.689615255e-12 3.953879833e-12 5.822605941e-12 8.589717517e-12 1.269448045e-11 1.879458152e-11 2.787656643e-11 4.142305281e-11 6.166639185e-11 9.197421783e-11 1.374366048e-10 2.057620179e-10 3.086471827e-10 4.638757684e-10 6.98540162e-10 1.053997487e-09 1.593509168e-09 2.414041701e-09 3.664533672e-09 5.574232436e-09 8.496745865e-09 1.297867325e-08 1.986676405e-08 3.047560379e-08 4.685060196e-08 7.218137746e-08 1.114530337e-07 1.724745864e-07 2.674887499e-07 4.156167203e-07 6.468660702e-07 1.008420884e-06 1.57458705e-06 2.462567683e-06 3.857526815e-06 6.052475651e-06 9.511852951e-06 1.497304505e-05 2.360875902e-05 3.728716843e-05 5.898942087e-05 9.348085425e-05 0.0001483919748 0.0002359624022 0.0003758593572 0.0005997408896 0.000958657162 0.001535076587 0.002462462355 0.00390978004 0.005746429182 0.007828720749 0.01006582529 0.0124010483 0.0147992779 0.0172387609 0.01970601631 0.02219268782 0.02469359531 0.02720552807 0.02972649707 0.03225527148 0.03479109123 0.03733348864 0.03988217776 0.04243698563 0.04499780956 0.04756459061 0.05013729708 0.05271591424 0.05530043796 0.05789087071 0.06048721911 0.06308949235 0.06569770126 0.06831185769 0.07093197414 0.07355806355 0.07619013912 0.07882821424 0.08147230242 0.08412241728 0.08677857248 0.08944078176 0.09210905888 0.09478341766 0.09746387195 0.1001504356 0.1028431227 0.1055419469 0.1082469225 0.1109580633 0.1136753835 0.116398897 0.1191286181 0.1218645609 0.1246067396 0.1273551683 0.1301098613 0.132870833 0.1356380975 0.1384116693 0.1411915627 0.1439777921 0.146770372 0.1495693169 0.1523746412 0.1551863595 0.1580044864 0.1608290365 0.1636600244 0.1664974647 0.1693413723 0.1721917618 0.175048648 0.1779120458 0.1807819698 0.1836584352 0.1865414566 0.1894310492 0.1923272278 0.1952300075 0.1981394033 0.2010554303 0.2039781037 0.2069074385 0.2098434499 0.2127861532 0.2157355636 0.2186916964 0.221654567 0.2246241906 0.2276005827 0.2305837587 0.233573734 0.2365705243 0.2395741449 0.2425846114 0.2456019396 0.2486261449 0.2516572431 0.2546952499 0.2577401811 0.2607920523 0.2638508795 0.2669166785 0.2699894651 0.2730692554 0.2761560652 0.2792499107 0.2823508077 0.2854587723 0.2885738208 0.2916959692 0.2948252337 0.2979616306 0.301105176 0.3042558863 0.3074137778 0.3105788669 0.31375117 0.3169307036 0.320117484 0.3233115278 0.3265128517 0.3297214721 0.3329374057 0.3361606692 0.3393912792 0.3426292526 0.3458746061 0.3491273565 0.3523875207 0.3556551156 0.3589301581 0.3622126652 0.3655026539 0.3688001413 0.3721051444 0.3754176804 0.3787377665 0.3820654198 0.3854006576 0.3887434972 0.392093956 0.3954520512 0.3988178003 0.4021912208 0.40557233 0.4089611457 0.4123576852 0.4157619662 0.4191740064 0.4225938235 0.4260214351 0.4294568591 0.4329001132 0.4363512153 0.4398101832 0.443277035 
0 1.673208066e-25 3.508061651e-25 5.677987976e-25 8.388370526e-25 1.189596144e-24 1.653316874e-24 2.273951225e-24 3.110322025e-24 4.241689735e-24 5.775252318e-24 7.856286682e-24 1.068188954e-23 1.451961512e-23 1.973276917e-23 2.681474627e-23 3.643565018e-23 4.950559434e-23 6.726065153e-23 9.13795546e-23 1.24142146e-22 1.686445031e-22 2.29091001e-22 3.111908087e-22 4.226961396e-22 5.741328994e-22 7.797924571e-22 1.059077795e-21 1.438330576e-21 1.9533108e-21 2.652562e-21 3.601977936e-21 4.8909995e-21 6.641023271e-21 9.016810485e-21 1.224196617e-20 1.66199393e-20 2.256251164e-20 3.06284434e-20 4.157589385e-20 5.643352263e-20 7.659692302e-20 1.039594044e-19 1.410893478e-19 1.914707052e-19 2.598291018e-19 3.525739818e-19 4.783980534e-19 6.490899376e-19 8.806370482e-19 1.195064984e-18 1.622755446e-18 2.205326553e-18 2.999868738e-18 4.084796553e-18 5.567943021e-18 7.597769467e-18 1.037890824e-17 1.41937382e-17 1.943236933e-17 2.663436229e-17 3.654684341e-17 5.020555289e-17 6.904800925e-17 9.507170326e-17 1.310555019e-16 1.808698905e-16 2.499122208e-16 3.457180735e-16 4.788210397e-16 6.6396334e-16 9.218025394e-16 1.281320623e-15 1.783228695e-15 2.484784791e-15 3.466619853e-15 4.842421122e-15 6.772686506e-15 9.48428627e-15 1.329831961e-14 1.866983447e-14 2.624453593e-14 3.693985435e-14 5.206098845e-14 7.346722952e-14 1.038106667e-13 1.468792235e-13 2.080902794e-13 2.952019193e-13 4.193391288e-13 5.964763666e-13 8.495823502e-13 1.211727004e-12 1.730588255e-12 2.474998184e-12 3.54446419e-12 5.083035887e-12 7.299528549e-12 1.049705673e-11 1.511622232e-11 2.179835521e-11 3.14782414e-11 4.552027067e-11 6.591860152e-11 9.559183657e-11 1.388174068e-10 2.018727442e-10 2.939829181e-10 4.287230275e-10 6.260962304e-10 9.156167991e-10 1.340889955e-09 1.966423451e-09 2.887770519e-09 4.246651093e-09 6.2535202e-09 9.22128814e-09 1.361575588e-08 2.013112714e-08 2.980317234e-08 4.417896826e-08 6.557170405e-08 9.744346316e-08 1.449806187e-07 2.159592133e-07 3.22046977e-07 4.807627705e-07 7.184256135e-07 1.074592489e-06 1.608639988e-06 2.409124117e-06 3.608505406e-06 5.404803317e-06 8.093640759e-06 1.211562982e-05 1.812616625e-05 2.709773051e-05 4.046893194e-05 6.036001283e-05 8.988145278e-05 0.000133570394 0.0001979976407 0.0002925927984 0.0004307295512 0.0006310821628 0.0009191781346 0.001328872676 0.001903048404 0.002691993389 0.003746253649 0.005097599693 0.006726801144 0.008588231035 0.01063115501 0.01281042185 0.01508983531 0.01744187219 0.01984631659 0.02228867823 0.02475875776 0.02724947626 0.02975597554 0.0322749523 0.03480417825 0.03734216088 0.03988790715 0.04244076077 0.04500029122 0.04756621861 0.05013836311 0.05271661116 0.05530089292 0.05789116736 0.06048741234 0.06308961815 0.06569778318 0.06831191106 0.07093200894 0.07355808625 0.07619015394 0.07882822392 0.08147230875 0.08412242142 0.08677857519 0.08944078353 0.09210906004 0.09478341842 0.09746387245 0.100150436 0.1028431229 0.1055419471 0.1082469226 0.1109580634 0.1136753835 0.1163988971 0.1191286182 0.1218645609 0.1246067396 0.1273551683 0.1301098613 0.1328708329 0.1356380975 0.1384116693 0.1411915627 0.1439777921 0.146770372 0.1495693169 0.1523746412 0.1551863595 0.1580044864 0.1608290365 0.1636600244 0.1664974647 0.1693413723 0.1721917618 0.175048648 0.1779120457 0.1807819698 0.1836584352 0.1865414566 0.1894310492 0.1923272278 0.1952300075 0.1981394033 0.2010554303 0.2039781036 0.2069074384 0.2098434499 0.2127861532 0.2157355636 0.2186916964 0.2216545669 0.2246241906 0.2276005827 0.2305837587 0.233573734 0.2365705242 0.2395741448 0.2425846114 0.2456019395 0.2486261449 0.2516572431 0.2546952499 0.257740181 0.2607920523 0.2638508795 0.2669166785 0.2699894651 0.2730692554 0.2761560652 0.2792499106 0.2823508076 0.2854587723 0.2885738208 0.2916959692 0.2948252337 0.2979616305 0.301105176 0.3042558863 0.3074137778 0.3105788669 0.31375117 0.3169307035 0.320117484 0.3233115278 0.3265128517 0.3297214721 0.3329374057 0.3361606692 0.3393912792 0.3426292526 0.3458746061 0.3491273565 0.3523875207 0.3556551156 0.3589301581 0.3622126652 0.3655026539 0.3688001413 0.3721051444 0.3754176804 0.3787377664 0.3820654198 0.3854006576 0.3887434972 0.3920939559 0.3954520512 0.3988178003 0.4021912207 0.40557233 0.4089611456 0.4123576852 0.4157619662 0.4191740064 0.4225938235 0.4260214351 0.4294568591 0.4329001132 0.4363512153 0.4398101832 0.443277035 
0 2.359500032e-24 4.93891773e-24 7.973234644e-24 1.173920785e-23 1.658054025e-23 2.293915728e-23 3.13954271e-23 4.272097303e-23 5.794886841e-23 7.846757835e-23 1.061471622e-22 1.43509169e-22 1.939556067e-22 2.62077706e-22 3.540724005e-22 4.783041694e-22 6.460629949e-22 8.725868673e-22 1.178441094e-21 1.591378797e-21 2.148850259e-21 2.901387142e-21 3.91716616e-21 5.288162752e-21 7.13844791e-21 9.635373538e-21 1.300465052e-20 1.755067227e-20 2.368390586e-20 3.195780489e-20 4.311854891e-20 5.817205952e-20 7.84742847e-20 1.058528172e-19 1.427707042e-19 1.925470609e-19 2.596541528e-19 3.501174075e-19 4.720539553e-19 6.3639759e-19 8.578745644e-19 1.156316853e-18 1.558429372e-18 2.100167796e-18 2.829937513e-18 3.81289677e-18 5.136744364e-18 6.919503025e-18 9.319998146e-18 1.255541493e-17 1.692305757e-17 2.282694912e-17 3.081686031e-17 4.164176985e-17 5.632317751e-17 7.625575326e-17 1.033456634e-16 1.402008774e-16 1.903932646e-16 2.588199381e-16 3.52201949e-16 4.797732614e-16 6.542336108e-16 8.930677038e-16 1.220373538e-15 1.669399013e-15 2.28606497e-15 3.133863476e-15 4.300675485e-15 5.90827015e-15 8.125554828e-15 1.11870766e-14 1.541888464e-14 2.127472105e-14 2.938671989e-14 4.063650754e-14 5.625502241e-14 7.796280674e-14 1.081673949e-13 1.502413378e-13 2.089142309e-13 2.90826094e-13 4.053093632e-13 5.654951368e-13 7.898798255e-13 1.10454622e-12 1.546315734e-12 2.167227016e-12 3.040905847e-12 4.271634636e-12 6.007279302e-12 8.457733509e-12 1.192126264e-11 1.682216987e-11 2.376470572e-11 3.361030399e-11 4.758834848e-11 6.745518379e-11 9.572260468e-11 1.359864953e-10 1.933999572e-10 2.75355073e-10 3.924661837e-10 5.599892482e-10 7.99872397e-10 1.143720754e-09 1.637086451e-09 2.345680684e-09 3.364375097e-09 4.830253275e-09 6.941545724e-09 9.985115024e-09 1.437637044e-08 2.071725555e-08 2.988051815e-08 4.31322021e-08 6.230971839e-08 9.008071742e-08 1.303193837e-07 1.886532768e-07 2.732576897e-07 3.960088789e-07 5.741569773e-07 8.327503018e-07 1.208144045e-06 1.753070349e-06 2.543950428e-06 3.691415503e-06 5.355129228e-06 7.76352206e-06 1.124390892e-05 1.62640917e-05 2.349022188e-05 3.386696092e-05 4.872750631e-05 6.99429314e-05 0.0001001221286 0.0001428749622 0.0002031511151 0.0002876639676 0.0004054000724 0.0005681964242 0.0007913341125 0.001094041017 0.001499711044 0.002035531428 0.002731079671 0.003615372985 0.004712004887 0.006032815881 0.007572978553 0.009313887289 0.01122811469 0.01328575944 0.01545861028 0.0177219932 0.02005541932 0.0224425077 0.02487053517 0.02732984276 0.02981323223 0.03231542091 0.0348325819 0.03736197378 0.03990165197 0.04245024938 0.04500681288 0.04757068335 0.05014140879 0.05271868211 0.05530229701 0.05789211685 0.06048805298 0.06309004964 0.06569807352 0.06831210632 0.0709321402 0.07355817447 0.07619021322 0.07882826375 0.08147233552 0.08412243941 0.08677858728 0.08944079165 0.0921090655 0.09478342209 0.09746387491 0.1001504376 0.102843124 0.1055419478 0.1082469231 0.1109580637 0.1136753837 0.1163988972 0.1191286182 0.121864561 0.1246067396 0.1273551683 0.1301098613 0.1328708329 0.1356380975 0.1384116692 0.1411915627 0.1439777921 0.146770372 0.1495693169 0.1523746412 0.1551863595 0.1580044864 0.1608290365 0.1636600243 0.1664974647 0.1693413723 0.1721917618 0.175048648 0.1779120457 0.1807819698 0.1836584351 0.1865414566 0.1894310492 0.1923272278 0.1952300075 0.1981394033 0.2010554303 0.2039781036 0.2069074384 0.2098434499 0.2127861531 0.2157355636 0.2186916964 0.2216545669 0.2246241905 0.2276005826 0.2305837586 0.233573734 0.2365705242 0.2395741448 0.2425846114 0.2456019395 0.2486261449 0.2516572431 0.2546952499 0.257740181 0.2607920523 0.2638508795 0.2669166784 0.2699894651 0.2730692554 0.2761560652 0.2792499106 0.2823508076 0.2854587723 0.2885738208 0.2916959692 0.2948252337 0.2979616305 0.3011051759 0.3042558863 0.3074137778 0.3105788669 0.31375117 0.3169307035 0.3201174839 0.3233115278 0.3265128516 0.329721472 0.3329374056 0.3361606691 0.3393912792 0.3426292526 0.3458746061 0.3491273565 0.3523875207 0.3556551156 0.3589301581 0.3622126652 0.3655026539 0.3688001412 0.3721051444 0.3754176804 0.3787377664 0.3820654197 0.3854006576 0.3887434972 0.3920939559 0.3954520511 0.3988178003 0.4021912207 0.40557233 0.4089611456 0.4123576851 0.4157619662 0.4191740064 0.4225938234 0.4260214351 0.429456859 0.4329001132 0.4363512152 0.4398101832 0.443277035 
0 5.976288837e-21 1.235574755e-20 1.955511367e-20 2.80454977e-20 3.838320103e-20 5.12461519e-20 6.74783445e-20 8.814519272e-20 1.146034265e-19 1.485901137e-19 1.923366441e-19 2.487151499e-19 3.214269641e-19 4.152454707e-19 5.363292703e-19 6.926261859e-19 8.943945901e-19 1.154876217e-18 1.491164539e-18 1.925325606e-18 2.485844748e-18 3.209493901e-18 4.14374181e-18 5.3498649e-18 6.90696242e-18 8.917138611e-18 1.151219093e-17 1.486224181e-17 1.91868784e-17 2.47695286e-17 3.197601301e-17 4.127848508e-17 5.328632329e-17 6.878599297e-17 8.879248004e-17 1.146156538e-16 1.479458883e-16 1.909645274e-16 2.464863953e-16 3.181436407e-16 4.106228931e-16 5.299711751e-16 6.839904856e-16 8.827467289e-16 1.139226091e-15 1.470181532e-15 1.897224403e-15 2.448232075e-15 3.159166293e-15 4.07727683e-15 5.264668926e-15 6.802236497e-15 8.795476197e-15 1.138212328e-14 1.474219104e-14 1.911118401e-14 2.479750545e-14 3.220541312e-14 4.186532068e-14 5.447383378e-14 7.094669896e-14 9.248889689e-14 1.2068752e-13 1.576349589e-13 2.060924445e-13 2.697073749e-13 3.533023936e-13 4.632602764e-13 6.080368757e-13 7.988453841e-13 1.050570018e-12 1.382987208e-12 1.822399369e-12 2.403822721e-12 3.17391987e-12 4.194934417e-12 5.549975006e-12 7.350118346e-12 9.743966384e-12 1.293051762e-11 1.7176518e-11 2.283987206e-11 3.040126005e-11 4.050687636e-11 5.402625303e-11 7.213056289e-11 9.639874864e-11 1.289614913e-10 1.726966754e-10 2.314949943e-10 3.106211596e-10 4.172055216e-10 5.609137082e-10 7.548594346e-10 1.016849703e-09 1.371084629e-09 1.850479456e-09 2.499838542e-09 3.380196567e-09 4.574759589e-09 6.19703986e-09 8.40199981e-09 1.140132495e-08 1.548436342e-08 2.104684362e-08 2.863026926e-08 3.897597097e-08 5.309927488e-08 7.239127613e-08 9.875847912e-08 1.348143567e-07 1.841420486e-07 2.516544595e-07 3.44087575e-07 4.706757727e-07 6.440754065e-07 8.816265024e-07 1.207073994e-06 1.652912064e-06 2.263571062e-06 3.099740105e-06 4.244214719e-06 5.809783391e-06 7.949826118e-06 1.087249853e-05 1.485962293e-05 2.029170607e-05 2.76808512e-05 3.771232234e-05 5.12916357e-05 6.961543327e-05 9.425637651e-05 0.000127266386 0.00017130066 0.0002297625188 0.0003069663302 0.0004083112686 0.0005404519478 0.0007114426537 0.0009308200311 0.00120957566 0.001559957861 0.001995037355 0.002527984889 0.003171057592 0.003934396398 0.00482491749 0.005845821717 0.006997423853 0.008279702889 0.009695074497 0.01124619626 0.01293213898 0.01474749091 0.01668303309 0.01872683735 0.02086558353 0.02308573203 0.02537439792 0.02771990507 0.03011206612 0.03254225708 0.0350033553 0.03748959756 0.03999640085 0.0425201745 0.04505814149 0.04760817845 0.0501686782 0.05273843555 0.05531655448 0.05790237432 0.06049541189 0.06309531684 0.06570183746 0.06831479277 0.07093405568 0.0735595391 0.07619118477 0.07882895509 0.08147282727 0.0841227891 0.08677883592 0.08944096843 0.09210919118 0.09478351145 0.09746393847 0.1001504828 0.1028431561 0.1055419707 0.1082469394 0.1109580753 0.113675392 0.1163989031 0.1191286224 0.121864564 0.1246067417 0.1273551698 0.1301098624 0.1328708337 0.135638098 0.1384116696 0.1411915629 0.1439777923 0.1467703721 0.1495693169 0.1523746412 0.1551863595 0.1580044864 0.1608290364 0.1636600243 0.1664974647 0.1693413722 0.1721917617 0.1750486479 0.1779120457 0.1807819698 0.1836584351 0.1865414566 0.1894310491 0.1923272277 0.1952300074 0.1981394032 0.2010554302 0.2039781036 0.2069074384 0.2098434498 0.2127861531 0.2157355635 0.2186916963 0.2216545669 0.2246241905 0.2276005826 0.2305837586 0.2335737339 0.2365705241 0.2395741448 0.2425846113 0.2456019395 0.2486261448 0.251657243 0.2546952498 0.257740181 0.2607920522 0.2638508794 0.2669166784 0.269989465 0.2730692553 0.2761560651 0.2792499105 0.2823508075 0.2854587722 0.2885738207 0.2916959691 0.2948252336 0.2979616304 0.3011051759 0.3042558862 0.3074137777 0.3105788668 0.3137511699 0.3169307034 0.3201174839 0.3233115277 0.3265128516 0.329721472 0.3329374056 0.3361606691 0.3393912791 0.3426292525 0.345874606 0.3491273564 0.3523875206 0.3556551155 0.358930158 0.3622126651 0.3655026538 0.3688001412 0.3721051443 0.3754176803 0.3787377663 0.3820654197 0.3854006575 0.3887434971 0.3920939558 0.3954520511 0.3988178002 0.4021912206 0.4055723299 0.4089611455 0.4123576851 0.4157619661 0.4191740063 0.4225938234 0.426021435 0.429456859 0.4329001131 0.4363512152 0.4398101832 0.443277035 