# vtk DataFile Version 3.0
# pde1d
ASCII
DATASET STRUCTURED_GRID
DIMENSIONS 301 46 1
POINTS 13846 double
-0.227182 0.246575 0 -0.22233 0.246575 0 -0.217481 0.246575 0 -0.212637 0.246575 0 -0.207796 0.246575 0 -0.202961 0.246575 0 -0.198131 0.246575 0 -0.193307 0.246575 0 -0.188491 0.246575 0 -0.183682 0.246575 0 -0.178883 0.246575 0 -0.174093 0.246575 0 -0.169315 0.246575 0 -0.164549 0.246575 0 -0.159797 0.246575 0 -0.155061 0.246575 0 -0.150341 0.246575 0 -0.14564 0.246575 0 -0.140959 0.246575 0 -0.1363 0.246575 0 -0.131666 0.246575 0 -0.127058 0.246575 0 -0.122478 0.246575 0 -0.117928 0.246575 0 -0.113411 0.246575 0 -0.108929 0.246575 0 -0.104483 0.246575 0 -0.100077 0.246575 0 -0.0957123 0.246575 0 -0.0913909 0.246575 0 -0.0871149 0.246575 0 -0.0828863 0.246575 0 -0.0787068 0.246575 0 -0.0745782 0.246575 0 -0.0705019 0.246575 0 -0.0664793 0.246575 0 -0.0625116 0.246575 0 -0.0585999 0.246575 0 -0.054745 0.246575 0 -0.0509476 0.246575 0 -0.0472081 0.246575 0 -0.0435269 0.246575 0 -0.0399041 0.246575 0 -0.0363397 0.246575 0 -0.0328336 0.246575 0 -0.0293854 0.246575 0 -0.0259947 0.246575 0 -0.022661 0.246575 0 -0.0193836 0.246575 0 -0.0161617 0.246575 0 -0.0129945 0.246575 0 -0.00988109 0.246575 0 -0.00682049 0.246575 0 -0.00381168 0.246575 0 -0.00085359 0.246575 0 0.00205488 0.246575 0 0.00491486 0.246575 0 0.00772749 0.246575 0 0.0104939 0.246575 0 0.0132153 0.246575 0 0.0158928 0.246575 0 0.0185276 0.246575 0 0.0211208 0.246575 0 0.0236735 0.246575 0 0.0261868 0.246575 0 0.0286619 0.246575 0 0.0310999 0.246575 0 0.0335017 0.246575 0 0.0358685 0.246575 0 0.0382011 0.246575 0 0.0405007 0.246575 0 0.0427682 0.246575 0 0.0450045 0.246575 0 0.0472104 0.246575 0 0.049387 0.246575 0 0.051535 0.246575 0 0.0536553 0.246575 0 0.0557488 0.246575 0 0.057816 0.246575 0 0.059858 0.246575 0 0.0618753 0.246575 0 0.0638687 0.246575 0 0.0658388 0.246575 0 0.0677864 0.246575 0 0.0697121 0.246575 0 0.0716165 0.246575 0 0.0735003 0.246575 0 0.0753639 0.246575 0 0.077208 0.246575 0 0.0790332 0.246575 0 0.0808399 0.246575 0 0.0826287 0.246575 0 0.0844 0.246575 0 0.0861544 0.246575 0 0.0878924 0.246575 0 0.0896143 0.246575 0 0.0913206 0.246575 0 0.0930118 0.246575 0 0.0946883 0.246575 0 0.0963503 0.246575 0 0.0979985 0.246575 0 0.099633 0.246575 0 0.101254 0.246575 0 0.102863 0.246575 0 0.104459 0.246575 0 0.106043 0.246575 0 0.107615 0.246575 0 0.109175 0.246575 0 0.110724 0.246575 0 0.112262 0.246575 0 0.11379 0.246575 0 0.115307 0.246575 0 0.116814 0.246575 0 0.118311 0.246575 0 0.119799 0.246575 0 0.121277 0.246575 0 0.122746 0.246575 0 0.124206 0.246575 0 0.125658 0.246575 0 0.127102 0.246575 0 0.128537 0.246575 0 0.129964 0.246575 0 0.131383 0.246575 0 0.132795 0.246575 0 0.1342 0.246575 0 0.135597 0.246575 0 0.136988 0.246575 0 0.138371 0.246575 0 0.139749 0.246575 0 0.141119 0.246575 0 0.142484 0.246575 0 0.143842 0.246575 0 0.145195 0.246575 0 0.146541 0.246575 0 0.147882 0.246575 0 0.149218 0.246575 0 0.150549 0.246575 0 0.151874 0.246575 0 0.153194 0.246575 0 0.15451 0.246575 0 0.155821 0.246575 0 0.157127 0.246575 0 0.158429 0.246575 0 0.159726 0.246575 0 0.16102 0.246575 0 0.162309 0.246575 0 0.163595 0.246575 0 0.164877 0.246575 0 0.166155 0.246575 0 0.167429 0.246575 0 0.168701 0.246575 0 0.169968 0.246575 0 0.171233 0.246575 0 0.172495 0.246575 0 0.173754 0.246575 0 0.17501 0.246575 0 0.176263 0.246575 0 0.177514 0.246575 0 0.178762 0.246575 0 0.180007 0.246575 0 0.181251 0.246575 0 0.182492 0.246575 0 0.183731 0.246575 0 0.184969 0.246575 0 0.186204 0.246575 0 0.187438 0.246575 0 0.18867 0.246575 0 0.1899 0.246575 0 0.191129 0.246575 0 0.192356 0.246575 0 0.193583 0.246575 0 0.194808 0.246575 0 0.196032 0.246575 0 0.197255 0.246575 0 0.198477 0.246575 0 0.199698 0.246575 0 0.200919 0.246575 0 0.202138 0.246575 0 0.203358 0.246575 0 0.204577 0.246575 0 0.205796 0.246575 0 0.207014 0.246575 0 0.208232 0.246575 0 0.209451 0.246575 0 0.210669 0.246575 0 0.211887 0.246575 0 0.213105 0.246575 0 0.214323 0.246575 0 0.215542 0.246575 0 0.216761 0.246575 0 0.217981 0.246575 0 0.219201 0.246575 0 0.220422 0.246575 0 0.221644 0.246575 0 0.222866 0.246575 0 0.22409 0.246575 0 0.225315 0.246575 0 0.226541 0.246575 0 0.227769 0.246575 0 0.228998 0.246575 0 0.230228 0.246575 0 0.23146 0.246575 0 0.232694 0.246575 0 0.23393 0.246575 0 0.235167 0.246575 0 0.236407 0.246575 0 0.237649 0.246575 0 0.238893 0.246575 0 0.24014 0.246575 0 0.241389 0.246575 0 0.242641 0.246575 0 0.243895 0.246575 0 0.245153 0.246575 0 0.246413 0.246575 0 0.247677 0.246575 0 0.248944 0.246575 0 0.250214 0.246575 0 0.251488 0.246575 0 0.252765 0.246575 0 0.254046 0.246575 0 0.255331 0.246575 0 0.25662 0.246575 0 0.257914 0.246575 0 0.259211 0.246575 0 0.260513 0.246575 0 0.261819 0.246575 0 0.263131 0.246575 0 0.264447 0.246575 0 0.265768 0.246575 0 0.267094 0.246575 0 0.268426 0.246575 0 0.269763 0.246575 0 0.271106 0.246575 0 0.272455 0.246575 0 0.27381 0.246575 0 0.275171 0.246575 0 0.276538 0.246575 0 0.277912 0.246575 0 0.279293 0.246575 0 0.28068 0.246575 0 0.282075 0.246575 0 0.283477 0.246575 0 0.284887 0.246575 0 0.286304 0.246575 0 0.287729 0.246575 0 0.289163 0.246575 0 0.290604 0.246575 0 0.292055 0.246575 0 0.293514 0.246575 0 0.294983 0.246575 0 0.296461 0.246575 0 0.297948 0.246575 0 0.299445 0.246575 0 0.300953 0.246575 0 0.302471 0.246575 0 0.304 0.246575 0 0.305539 0.246575 0 0.30709 0.246575 0 0.308653 0.246575 0 0.310227 0.246575 0 0.311814 0.246575 0 0.313414 0.246575 0 0.315026 0.246575 0 0.316652 0.246575 0 0.318292 0.246575 0 0.319945 0.246575 0 0.321613 0.246575 0 0.323296 0.246575 0 0.324994 0.246575 0 0.326708 0.246575 0 0.328438 0.246575 0 0.330185 0.246575 0 0.331949 0.246575 0 0.33373 0.246575 0 0.33553 0.246575 0 0.337348 0.246575 0 0.339186 0.246575 0 0.341043 0.246575 0 0.34292 0.246575 0 0.344818 0.246575 0 0.346738 0.246575 0 0.34868 0.246575 0 0.350645 0.246575 0 0.352633 0.246575 0 0.354646 0.246575 0 0.356683 0.246575 0 0.358746 0.246575 0 0.360835 0.246575 0 0.362952 0.246575 0 0.365096 0.246575 0 0.367269 0.246575 0 0.369472 0.246575 0 0.371706 0.246575 0 0.373971 0.246575 0 0.376269 0.246575 0 0.3786 0.246575 0 0.380966 0.246575 0 0.383366 0.246575 0 0.385804 0.246575 0 0.388279 0.246575 0 0.390792 0.246575 0 
[...]
POINT_DATA 13846
SCALARS Op_Q0_Npv double
LOOKUP_TABLE default
0 0 0 0 0 0 0 0 0 0 0 0 0 0 0 0 0 0 0 0 0 0 0 0 0 0 0 0 0 0 0 0 0 0 0 0 0 0 0 0 0 0 0 0 0 0 0 0 0 0 0 0 0 0 0 0 0 0 0 0 0 0 0 0 0 0 0 0 0 0 0 0 0 0 0 0 0 0 0 0 0 0 0 0 0 0 0 0 0 1.23906642e-05 0.00119723413 0.003138294947 0.005063871352 0.006974395467 0.008870287098 0.01075195413 0.0126197929 0.0144741886 0.0163155156 0.01814413786 0.01996040925 0.0217646739 0.02355726655 0.02533851286 0.02710872972 0.0288682256 0.0306173008 0.03235624774 0.03408535128 0.03580488897 0.03751513129 0.03921634194 0.04090877806 0.04259269048 0.04426832394 0.04593591731 0.04759570382 0.04924791124 0.05089276211 0.0525304739 0.05416125922 0.05578532598 0.05740287759 0.0590141131 0.06061922737 0.06221841123 0.06381185164 0.0653997318 0.06698223135 0.06855952643 0.0701317899 0.07169919137 0.07326189742 0.07482007164 0.07637387481 0.07792346495 0.07946899747 0.08101062527 0.08254849884 0.08408276634 0.08561357373 0.08714106483 0.08866538143 0.09018666338 0.09170504866 0.09322067348 0.09473367235 0.09624417816 0.09775232228 0.0992582346 0.1007620436 0.1022638765 0.1037638592 0.1052621165 0.106758772 0.1082539483 0.1097477671 0.111240349 0.1127318139 0.1142222808 0.1157118681 0.1172006934 0.1186888738 0.1201765257 0.1216637651 0.1231507075 0.1246374681 0.1261241617 0.1276109029 0.129097806 0.1305849851 0.1320725542 0.1335606275 0.1350493188 0.1365387422 0.1380290119 0.139520242 0.1410125472 0.1425060422 0.144000842 0.1454970622 0.1469948186 0.1484941486 0.1499950939 0.1514977773 0.1530023227 0.1545088545 0.1560174979 0.157528379 0.1590416249 0.1605573635 0.1620757238 0.1635968359 0.1651208311 0.1666478418 0.1681780019 0.1697114464 0.1712483119 0.1727887365 0.1743328596 0.1758808226 0.1774327683 0.1789888416 0.180549189 0.182113959 0.1836833022 0.1852573713 0.1868363211 0.1884203089 0.1900094941 0.1916040388 0.1932041075 0.1948098676 0.1964214891 0.198039145 0.199663011 0.2012932664 0.2029300933 0.2045736773 0.2062242076 0.2078818769 0.2095468816 0.2112194219 0.2128997024 0.2145879314 0.2162843218 0.2179890911 0.2197024611 0.2214246587 0.2231559159 0.2248964695 0.2266465622 0.2284064419 0.2301763625 0.2319565838 0.2337473721 0.2355489998 0.2373617464 0.2391858982 0.2410217488 0.2428695992 0.2447297585 0.2466025437 0.2484882802 0.2503873024 0.2522999536 0.2542265865 0.2561675638 0.2581232583 0.2600940535 0.2620803437 0.2640825351 0.2661010453 0.2681363047 0.2701887564 0.272258857 0.274347077 0.2764539015 0.2785798306 0.2807253803 0.2828910828 0.2850774874 0.2872851613 0.2895146898 0.2917666779 0.2940417502 0.2963405525 0.298663752 0.3010120389 0.3033861266 0.3057867531 0.308214682 0.3106707035 0.3131556353 0.3156703241 0.3182156463 0.3207925096 0.3234018542 0.3260446537 0.3287219169 0.3314346888 0.3341840524 0.3369711294 0.3397970824 0.3426631159 0.3455704778 0.3485204609 0.3515144044 0.3545536953 0.3576397697 0.3607741144 0.3639582678 0.3671938212 0.3704824202 0.373825765 0.3772256117 0.3806837723 0.3842021157 0.3877825665 0.3914271059 0.3951377696 
1.130858079e-26 1.887216197e-24 4.603831118e-24 9.365213069e-24 1.82773543e-23 3.527272269e-23 6.783020308e-23 1.302331432e-22 2.497643713e-22 4.784815494e-22 9.155627929e-22 1.749619548e-21 3.338620089e-21 6.360437853e-21 1.209556992e-20 2.295628952e-20 4.347342777e-20 8.214272959e-20 1.552042401e-19 2.936077838e-19 5.561998536e-19 1.054934424e-18 2.002808022e-18 3.804899405e-18 7.231002736e-18 1.374233264e-17 2.6108335e-17 4.956797984e-17 9.400926515e-17 1.780452385e-16 3.36607133e-16 6.350295356e-16 1.195059061e-15 2.242646744e-15 4.19531833e-15 7.821038178e-15 1.452545087e-14 2.686823489e-14 4.948579123e-14 9.072999743e-14 1.655607444e-13 3.006195611e-13 5.430728584e-13 9.759280702e-13 1.744392865e-12 3.10095381e-12 5.481986139e-12 9.637143014e-12 1.684654898e-11 2.928288007e-11 5.061323445e-11 8.698938244e-11 1.486730087e-10 2.526850612e-10 4.271018548e-10 7.179845829e-10 1.200498782e-09 1.996667679e-09 3.303579016e-09 5.437988448e-09 8.906527089e-09 1.451571947e-08 2.354364326e-08 3.800665118e-08 6.107212755e-08 9.769474507e-08 1.555935478e-07 2.467398805e-07 3.895066881e-07 6.120160201e-07 9.571826552e-07 1.490213066e-06 2.309777684e-06 3.564594496e-06 5.477958347e-06 8.383900226e-06 1.278031677e-05 1.940678867e-05 2.935821452e-05 4.425025704e-05 6.645954371e-05 9.947144511e-05 0.0001483822816 0.0002206226831 0.000326996927 0.0004831727333 0.0007118118563 0.001045610357 0.001531627703 0.002237438357 0.003258060906 0.004562419856 0.006054073192 0.007668311044 0.009361218988 0.0111032927 0.01287477628 0.01466242279 0.01645734846 0.01825360529 0.02004722767 0.02183559285 0.02361699044 0.02539033147 0.02715495094 0.02891047355 0.03065672188 0.03239365357 0.03412131812 0.03583982709 0.03754933362 0.03925001816 0.04094207866 0.04262572373 0.04430116792 0.04596862848 0.04762832307 0.04928046827 0.05092527851 0.05256296543 0.05419373736 0.05581779916 0.05743535196 0.05904659317 0.06065171645 0.06225091176 0.06384436539 0.06543226009 0.06701477513 0.0685920864 0.07016436656 0.07173178509 0.07329450845 0.07485270017 0.07640652095 0.07795612879 0.07950167906 0.08104332465 0.08258121602 0.08411550132 0.0856463265 0.08717383538 0.08869816974 0.09021946943 0.09173787242 0.09325351493 0.09476653147 0.09627705493 0.09778521667 0.09929114658 0.1007949732 0.1022968236 0.1037968239 0.1052950987 0.1067917717 0.1082869655 0.1097808017 0.111273401 0.1127648834 0.1142553677 0.1157449724 0.1172338152 0.1187220129 0.1202096822 0.121696939 0.1231838988 0.1246706768 0.1261573878 0.1276441464 0.1291310668 0.1306182633 0.1321058499 0.1335939405 0.1350826492 0.1365720901 0.1380623771 0.1395536247 0.1410459473 0.1425394598 0.1440342771 0.1455305148 0.1470282887 0.1485276363 0.150028599 0.1515313 0.153035863 0.1545424124 0.1560510734 0.1575619723 0.1590752358 0.1605909921 0.1621093702 0.1636305001 0.1651545131 0.1666815417 0.1682117197 0.1697451821 0.1712820656 0.1728225081 0.1743666493 0.1759146304 0.1774665943 0.1790226858 0.1805830514 0.1821478397 0.1837172013 0.1852912887 0.186870257 0.1884542633 0.1900434671 0.1916380304 0.1932381179 0.1948438968 0.1964555371 0.1980732119 0.1996970969 0.2013273713 0.2029642174 0.2046078206 0.2062583703 0.2079160589 0.209581083 0.211253643 0.212933943 0.2146221918 0.2163186021 0.2180233912 0.2197367813 0.2214589991 0.2231902765 0.2249308505 0.2266809636 0.2284408639 0.2302108052 0.2319910474 0.2337818565 0.2355835053 0.2373962731 0.2392204463 0.2410563183 0.2429041903 0.2447643714 0.2466371785 0.2485229371 0.2504219815 0.252334655 0.2542613104 0.2562023104 0.2581580278 0.260128846 0.2621151595 0.2641173742 0.2661359081 0.2681711913 0.270223667 0.2722937918 0.2743820362 0.2764888854 0.2786148394 0.2807604141 0.282926142 0.2851125722 0.2873202718 0.2895498264 0.2918018408 0.2940769397 0.2963757689 0.2986989956 0.30104731 0.3034214254 0.30582208 0.3082500373 0.3107060875 0.3131910484 0.3157057666 0.3182511186 0.3208280121 0.3234373871 0.3260802175 0.328757512 0.3314703157 0.3342197114 0.3370068211 0.3398328071 0.3426988741 0.34560627 0.3485562876 0.3515502661 0.3545895926 0.3576757031 0.3608100845 0.3639942751 0.3672298664 0.3705185038 0.3738618877 0.3772617741 0.3807199751 0.3842383595 0.3878188522 0.391463434 0.3951741409 
2.928882965e-25 4.697124416e-23 1.137360891e-22 2.289746066e-22 4.415506359e-22 8.413275422e-22 1.596741718e-21 3.024897796e-21 5.722857658e-21 1.081344568e-20 2.040462679e-20 3.844599589e-20 7.232134856e-20 1.358010761e-19 2.544975301e-19 4.75909243e-19 8.878420095e-19 1.65232285e-18 3.074224102e-18 5.725037801e-18 1.067313314e-17 1.991628489e-17 3.718904929e-17 6.946756118e-17 1.297686572e-16 2.423441612e-16 4.522928559e-16 8.432904577e-16 1.570176453e-15 2.918609374e-15 5.413801519e-15 1.001778312e-14 1.848548031e-14 3.400404594e-14 6.233433645e-14 1.138370021e-13 2.070468778e-13 3.749392784e-13 6.758446985e-13 1.212334992e-12 2.163684162e-12 3.84128239e-12 6.782586799e-12 1.190931371e-11 2.07919647e-11 3.608911765e-11 6.227194163e-11 1.068109755e-10 1.821069491e-10 3.086080659e-10 5.198271294e-10 8.70321314e-10 1.448351637e-09 2.395808027e-09 3.939379305e-09 6.439010358e-09 1.046277069e-08 1.690182663e-08 2.714593776e-08 4.334974439e-08 6.883443106e-08 1.086900334e-07 1.706733362e-07 2.665386064e-07 4.139982536e-07 6.395945552e-07 9.828806745e-07 1.502430816e-06 2.283880083e-06 3.451916133e-06 5.187201453e-06 7.749781184e-06 1.151148975e-05 1.700042788e-05 2.496144027e-05 3.643751717e-05 5.287812265e-05 7.628150382e-05 0.000109378834 0.0001558681835 0.0002207050981 0.0003104528454 0.000433687306 0.0006014360973 0.0008276042435 0.001129292498 0.001526838553 0.002043289662 0.002702823387 0.003527335293 0.004529955109 0.005703814347 0.007026481846 0.008470978768 0.01001067191 0.01162222792 0.01328642327 0.01498794239 0.01671486257 0.01845806026 0.02021064813 0.02196748716 0.02372478429 0.02547977115 0.0272304528 0.0289754143 0.03071367328 0.03244456856 0.03416767645 0.03588274822 0.03758966344 0.0392883954 0.04097898539 0.04266152373 0.0443361357 0.04600297121 0.04766219719 0.04931399193 0.050958541 0.05259603425 0.05422666362 0.05585062151 0.05746809972 0.05907928857 0.06068437635 0.06228354896 0.06387698964 0.06546487878 0.06704739387 0.06862470946 0.07019699717 0.07176442571 0.07332716095 0.07488536597 0.07643920113 0.07798882417 0.07953439027 0.08107605214 0.08261396015 0.08414826235 0.08567910463 0.08720663075 0.08873098246 0.09025229957 0.09177072005 0.09328638007 0.09479941414 0.09630995514 0.09781813443 0.09932408189 0.100827926 0.102329794 0.1038298118 0.1053281041 0.1068247946 0.1083200059 0.1098138596 0.1113064764 0.1127979762 0.114288478 0.1157781002 0.1172669603 0.1187551755 0.1202428622 0.1217301364 0.1232171136 0.124703909 0.1261906374 0.1276774134 0.1291643513 0.1306515652 0.1321391692 0.1336272773 0.1351160034 0.1366054617 0.1380957662 0.1395870312 0.1410793713 0.1425729013 0.1440677361 0.1455639913 0.1470617828 0.1485611479 0.1500621282 0.1515648469 0.1530694275 0.1545759945 0.1560846732 0.1575955897 0.159108871 0.1606246451 0.1621430409 0.1636641886 0.1651882195 0.166715266 0.1682454619 0.1697789423 0.1713158438 0.1728563043 0.1744004636 0.1759484628 0.1775004449 0.1790565546 0.1806169385 0.1821817451 0.1837511251 0.185325231 0.1869042178 0.1884882426 0.190077465 0.191672047 0.1932721532 0.1948779509 0.1964896101 0.1981073038 0.1997312079 0.2013615014 0.2029983666 0.2046419891 0.2062925581 0.2079502661 0.2096153098 0.2112878893 0.2129682091 0.2146564776 0.2163529078 0.2180577169 0.219771127 0.221493365 0.2232246626 0.2249652571 0.2267153907 0.2284753116 0.2302452736 0.2320255366 0.2338163668 0.2356180367 0.2374308257 0.2392550202 0.2410909137 0.2429388074 0.2447990103 0.2466718393 0.24855762 0.2504566866 0.2523693825 0.2542960605 0.2562370833 0.2581928236 0.2601636649 0.2621500016 0.2641522398 0.2661707973 0.2682061043 0.2702586041 0.2723287532 0.2744170221 0.2765238959 0.2786498748 0.2807954747 0.2829612279 0.2851476837 0.2873554092 0.2895849899 0.2918370307 0.2941121563 0.2964110124 0.2987342664 0.3010826082 0.3034567514 0.3058574342 0.3082854199 0.3107414989 0.3132264889 0.3157412366 0.3182866184 0.320863542 0.3234729477 0.326115809 0.3287931349 0.3315059704 0.3342553983 0.3370425406 0.3398685598 0.3427346604 0.3456420903 0.3485921424 0.351586156 0.3546255181 0.3577116648 0.3608460829 0.3640303108 0.3672659399 0.3705546158 0.3738980389 0.377297965 0.3807562066 0.3842746321 0.3878551666 0.391499791 0.3952105412 
3.877138832e-24 5.976544376e-22 1.436814123e-21 2.863689857e-21 5.458404722e-21 1.027200277e-20 1.924661202e-20 3.598760466e-20 6.718865603e-20 1.252605991e-19 2.331715016e-19 4.333351254e-19 8.038863942e-19 1.48838732e-18 2.749856064e-18 5.068660474e-18 9.319156156e-18 1.70898155e-17 3.132404335e-17 5.745132276e-17 1.054560252e-16 1.936976782e-16 3.559151361e-16 6.540439224e-16 1.201616141e-15 2.206361451e-15 4.047516783e-15 7.415617962e-15 1.356426024e-14 2.4761523e-14 4.509555599e-14 8.190483403e-14 1.483036356e-13 2.676157533e-13 4.811112639e-13 8.614220501e-13 1.535652341e-12 2.724922532e-12 4.811564188e-12 8.452496014e-12 1.476914732e-11 2.566329918e-11 4.433847211e-11 7.615427264e-11 1.300159503e-10 2.20617677e-10 3.720372044e-10 6.234533664e-10 1.038173064e-09 1.717763401e-09 2.824105549e-09 4.613348425e-09 7.488055618e-09 1.207657246e-08 1.935299754e-08 3.08172463e-08 4.876339631e-08 7.667677586e-08 1.198174158e-07 1.860712624e-07 2.871831938e-07 4.40530266e-07 6.716533261e-07 1.017844565e-06 1.533192954e-06 2.295624754e-06 3.416648815e-06 5.054607139e-06 7.43100829e-06 1.085417069e-05 1.575053334e-05 2.27049933e-05 3.251293552e-05 4.624640674e-05 6.533696017e-05 9.167750496e-05 0.0001277448649 0.0001767434499 0.0002427681677 0.0003309810698 0.0004477908063 0.0006010163076 0.0008000058986 0.001055670274 0.001380373166 0.001787609296 0.002291390123 0.002905263321 0.003640928892 0.004506512904 0.005504769033 0.006631880457 0.007878226871 0.009230405642 0.01067279482 0.01218968882 0.01376649113 0.01539023878 0.01704979436 0.01873582719 0.02044067452 0.02215814551 0.02388330784 0.02561228057 0.02734204564 0.02907028345 0.03079523341 0.03251557838 0.0342303502 0.03593885362 0.03764060552 0.03933528682 0.04102270464 0.04270276263 0.04437543798 0.04604076346 0.04769881362 0.04934969408 0.05099353339 0.05263047665 0.0542606808 0.05588431087 0.05750153725 0.05911253356 0.06071747508 0.06231653753 0.06390989621 0.06549772535 0.06708019755 0.06865748357 0.07022975208 0.07179716951 0.07335989994 0.07491810507 0.07647194418 0.07802157417 0.07956714955 0.08110882254 0.08264674308 0.08418105895 0.08571191575 0.08723945708 0.08876382452 0.09028515778 0.09180359471 0.09331927144 0.09483232241 0.09634288046 0.0978510769 0.09935704159 0.100860903 0.1023627883 0.1038628235 0.1053611332 0.1068578411 0.1083530699 0.109846941 0.1113395753 0.1128310925 0.1143216117 0.1158112513 0.1173001289 0.1187883615 0.1202760657 0.1217633573 0.123250352 0.1247371648 0.1262239107 0.1277107041 0.1291976594 0.1306848907 0.1321725122 0.1336606377 0.1351493813 0.1366388571 0.1381291791 0.1396204616 0.1411128192 0.1426063667 0.1441012191 0.1455974918 0.1470953009 0.1485946836 0.1500956815 0.1515984178 0.153103016 0.1546096007 0.1561182972 0.1576292314 0.1591425304 0.1606583223 0.1621767359 0.1636979015 0.1652219502 0.1667490146 0.1682792285 0.1698127269 0.1713496464 0.1728901251 0.1744343024 0.1759823198 0.1775343201 0.1790904481 0.1806508503 0.1822156753 0.1837850736 0.185359198 0.1869382033 0.1885222467 0.1901114878 0.1917060885 0.1933062135 0.19491203 0.1965237082 0.1981414208 0.1997653439 0.2013956566 0.203032541 0.2046761828 0.2063267711 0.2079844986 0.2096495618 0.211322161 0.2130025004 0.2146907888 0.2163872388 0.218092068 0.2198054982 0.2215277564 0.2232590744 0.2249996892 0.2267498434 0.2285097849 0.2302797677 0.2320600516 0.2338509028 0.2356525938 0.2374654041 0.23928962 0.2411255351 0.2429734505 0.2448336751 0.2467065261 0.248592329 0.2504914179 0.2524041362 0.2543308369 0.2562718824 0.2582276456 0.26019851 0.2621848701 0.2641871318 0.266205713 0.2682410439 0.2702935677 0.2723637411 0.2744520345 0.276558933 0.2786849369 0.280830562 0.2829963406 0.2851828221 0.2873905735 0.2896201804 0.2918722476 0.2941473999 0.2964462829 0.2987695642 0.3011179336 0.3034921047 0.3058928156 0.3083208298 0.3107769377 0.3132619568 0.315776734 0.3183221456 0.3208990996 0.3235085358 0.3261514282 0.3288287855 0.3315416528 0.334291113 0.337078288 0.3399043404 0.3427704746 0.3456779386 0.3486280254 0.3516220741 0.3546614718 0.3577476548 0.3608821096 0.3640663748 0.367302042 0.3705907564 0.3739342186 0.3773341847 0.3807924667 0.3843109335 0.3878915099 0.391536177 0.3952469707 
6.242841144e-21 6.937809806e-19 1.58727438e-18 2.950112642e-18 5.183078291e-18 8.941000362e-18 1.532244047e-17 2.618633061e-17 4.468488056e-17 7.616185692e-17 1.29665334e-16 2.204903157e-16 3.744418986e-16 6.349632311e-16 1.075016395e-15 1.816818061e-15 3.064501302e-15 5.15868497e-15 8.680991302e-15 1.461779411e-14 2.463558664e-14 4.155012695e-14 7.011662757e-14 1.183582439e-13 1.997944504e-13 3.371687917e-13 5.686656607e-13 9.582421999e-13 1.612733674e-12 2.71005467e-12 4.545483762e-12 7.607259568e-12 1.269941527e-11 2.114028578e-11 3.508147865e-11 5.801736986e-11 9.55939193e-11 1.568845037e-10 2.563893151e-10 4.171478071e-10 6.755509274e-10 1.088730142e-09 1.745823827e-09 2.7850345e-09 4.419269624e-09 6.974409415e-09 1.094600858e-08 1.708270371e-08 2.650801238e-08 4.089660573e-08 6.272920404e-08 9.565464992e-08 1.450047019e-07 2.18517988e-07 3.273509534e-07 4.874787132e-07 7.216209991e-07 1.061868872e-06 1.55323784e-06 2.258433553e-06 3.26418803e-06 4.689607237e-06 6.69706333e-06 9.506263487e-06 1.341222549e-05 1.880797746e-05 2.621285913e-05 3.630655709e-05 4.99622115e-05 6.829532355e-05 9.271934975e-05 0.000125005508 0.0001673473804 0.0002224276036 0.0002934823953 0.0003843577758 0.0004995491772 0.0006442138458 0.0008241433507 0.001045682134 0.00131557813 0.001640754156 0.002027995391 0.002483560406 0.003012742369 0.003619433748 0.004305780482 0.005072043544 0.005916801001 0.006837588614 0.007831927784 0.008898310599 0.0100359375 0.01124366822 0.01251892359 0.01385779857 0.01525528032 0.01670555043 0.01820234362 0.01973928279 0.02131015178 0.02290909374 0.02453073911 0.0261702742 0.02782346392 0.02948664166 0.03115667722 0.03283093192 0.03450720721 0.03618369164 0.03785890925 0.03953167138 0.04120103281 0.04286625286 0.04452676143 0.04618212966 0.04783204497 0.04947628995 0.05111472473 0.05274727219 0.05437390585 0.05599463976 0.05760952033 0.05921861957 0.06082202959 0.06241985822 0.06401222535 0.06559925997 0.06718109741 0.06875787812 0.07032974625 0.07189684837 0.07345933248 0.07501734724 0.07657104139 0.07812056326 0.07966606047 0.0812076796 0.08274556605 0.08427986388 0.08581071573 0.08733826272 0.08886264449 0.09038399912 0.09190246316 0.09341817167 0.09493125823 0.09644185498 0.09795009265 0.09945610063 0.100960007 0.1024619387 0.1039620213 0.1054603794 0.1069571364 0.1084524148 0.1099463362 0.1114390211 0.1129305892 0.1144211597 0.1159108507 0.1173997799 0.1188880642 0.1203758202 0.1218631638 0.1233502105 0.1248370755 0.1263238735 0.1278107192 0.1292977268 0.1307850105 0.1322726843 0.1337608623 0.1352496584 0.1367391867 0.1382295612 0.1397208964 0.1412133066 0.1427069068 0.1442018119 0.1456981375 0.1471959994 0.1486954351 0.150196486 0.1516992753 0.1532039267 0.1547105646 0.1562193143 0.1577303019 0.1592436544 0.1607594998 0.1622779671 0.1637991864 0.165323289 0.1668504073 0.1683806752 0.1699142278 0.1714512016 0.1729917346 0.1745359666 0.1760840386 0.1776360937 0.1791922766 0.1807527339 0.1823176142 0.183887068 0.185461248 0.1870403091 0.1886244085 0.1902137056 0.1918083627 0.1934085442 0.1950144175 0.1966261525 0.1982439223 0.1998679028 0.201498273 0.2031352152 0.2047789151 0.2064295617 0.2080873478 0.2097524698 0.211425128 0.2131055269 0.2147938748 0.2164903848 0.2181952742 0.2199087649 0.2216310839 0.2233624631 0.2251031394 0.2268533554 0.2286133591 0.2303834044 0.2321637512 0.2339546656 0.2357564203 0.2375692947 0.239393575 0.2412295549 0.2430775356 0.244937826 0.2468107431 0.2486966126 0.2505957686 0.2525085545 0.2544353232 0.2563764373 0.2583322696 0.2603032037 0.2622896339 0.2642919663 0.2663106188 0.2683460216 0.270398618 0.2724688645 0.2745572317 0.2766642046 0.2787902836 0.2809359845 0.2831018396 0.2852883983 0.2874962277 0.2897259134 0.2919780602 0.2942532928 0.2965522571 0.2988756204 0.3012240728 0.3035983278 0.3059991235 0.3084272236 0.3108834182 0.3133685251 0.3158833911 0.3184288927 0.3210059377 0.3236154661 0.3262584519 0.3289359038 0.3316488669 0.3343984243 0.3371856977 0.3400118499 0.3428780854 0.3457856521 0.3487358431 0.3517299976 0.3547695026 0.3578557945 0.36099036 0.3641747377 0.3674105191 0.3706993496 0.3740429298 0.3774430158 0.3809014199 0.3844200107 0.3880007134 0.391645509 0.3953564336 